21
        Energy:      55.7456799
N         -0.87075        1.27316       -0.20274
C         -1.92959        0.46776        0.05301
C         -1.50204       -0.85405        0.21702
C         -0.13227       -0.81897        0.04955
C          0.20857        0.47584       -0.20082
N          1.49152        0.85693       -0.41419
C          2.46598       -0.10042       -0.37392
N          2.14472       -1.40910       -0.12360
C          0.85368       -1.79640        0.09173
C         -2.31381       -2.05776        0.50823
C         -3.64804       -2.02188        0.65998
C         -4.43680       -3.23858        0.95058
O         -5.64829       -3.15058        1.07938
O         -3.83451       -4.44187        1.07472
H         -4.18419       -1.08277        0.57091
H         -4.34212       -5.24388        1.26483
H         -1.79261       -3.00557        0.60049
H         -2.94802        0.82567        0.11521
H          3.49805        0.17593       -0.54065
H          0.61534       -2.83247        0.28801
H         -0.89106        2.30397       -0.36762
