[Molden Format]
[Title]
 Molden file created by orca_2mkl for BaseName=LUMO

[Atoms] AU
N    1   7         -1.6198985520         2.3433039605        -0.3799379322 
C    2   6         -3.6805909946         0.8419649269         0.1061167949 
C    3   6         -2.9290390584        -1.6426243805         0.4235605741 
C    4   6         -0.2221954550        -1.6367501614         0.1053117628 
C    5   6          0.5231230504         0.8795590678        -0.3923383055 
N    6   7          2.8651497804         1.6727559980        -0.7969091127 
C    7   6          4.5619413158        -0.1954798910        -0.6916051151 
N    8   7          4.1302234133        -2.6587613830        -0.2386196198 
C    9   6          1.7479426368        -3.3834605389         0.1594004518 
C   10   6         -4.4683089833        -3.8213735866         0.9588980214 
C   11   6         -6.9945616004        -3.8461190111         1.2683945665 
C   12   6         -8.4611895134        -6.1202262659         1.8103685587 
O   13   8        -10.7398179122        -6.1414201639         2.0978828675 
O   14   8         -7.0400380163        -8.2669600970         1.9703704544 
H   15   1         -8.1350748254        -2.1450325603         1.1360031796 
H   16   1         -8.2201769691        -9.6195875778         2.3318570034 
H   17   1         -3.4658276933        -5.6086742315         1.1243846926 
H   18   1         -5.5525901286         1.6552429083         0.1919499497 
H   19   1          6.5243955604         0.3376648684        -1.0089593409 
H   20   1          1.4300801816        -5.3859864587         0.5237309070 
H   21   1         -1.6469917091         4.2231705003        -0.6841039785 
[GTO]
  1 0
s   6 1.0 
    19730.8006470000         0.6956035199
     2957.8958745000         1.2986099328
      673.2213359500         2.2190880635
      190.6824949400         3.4636607549
       62.2954418980         4.6967555531
       22.6541611820         4.9522510945
s   2 1.0 
        8.9791477428         2.3880677979
        3.6863002370         0.7337878750
s   1 1.0 
        0.8466007680         0.6290267082
s   1 1.0 
        0.3364713377         0.3148626514
s   1 1.0 
        0.1364765368         0.1600308040
p   4 1.0 
       49.2003805100         2.1264813968
       11.3467905370         2.3279367185
        3.4273972411         2.0485729192
        1.1785525134         1.2607319854
p   1 1.0 
        0.4164220497         0.4768230427
p   1 1.0 
        0.1426082601         0.1249168256
d   1 1.0 
        1.1000000000         3.3682729889
d   1 1.0 
        0.2000000000         0.1705189210

  2 0
s   6 1.0 
    13575.3496820000         0.5435905310
     2035.2333680000         1.0145543947
      463.2256235900         1.7315731970
      131.2001959800         2.6910376290
       42.8530158910         3.6044547126
       15.5841857660         3.7025556986
s   2 1.0 
        6.2067138508         1.8383540830
        2.5764896527         0.5447575605
s   1 1.0 
        0.5769633942         0.4718145038
s   1 1.0 
        0.2297283136         0.2364944676
s   1 1.0 
        0.0951644400         0.1221141848
p   4 1.0 
       34.6972322440         1.3596651510
        7.9582622826         1.4512589489
        2.3780826883         1.2709231421
        0.8143320818         0.8025721189
p   1 1.0 
        0.2888754725         0.3018758868
p   1 1.0 
        0.1005682367         0.0807265016
d   1 1.0 
        0.8000000000         1.9292013661

  3 0
s   6 1.0 
    13575.3496820000         0.5435905310
     2035.2333680000         1.0145543947
      463.2256235900         1.7315731970
      131.2001959800         2.6910376290
       42.8530158910         3.6044547126
       15.5841857660         3.7025556986
s   2 1.0 
        6.2067138508         1.8383540830
        2.5764896527         0.5447575605
s   1 1.0 
        0.5769633942         0.4718145038
s   1 1.0 
        0.2297283136         0.2364944676
s   1 1.0 
        0.0951644400         0.1221141848
p   4 1.0 
       34.6972322440         1.3596651510
        7.9582622826         1.4512589489
        2.3780826883         1.2709231421
        0.8143320818         0.8025721189
p   1 1.0 
        0.2888754725         0.3018758868
p   1 1.0 
        0.1005682367         0.0807265016
d   1 1.0 
        0.8000000000         1.9292013661

  4 0
s   6 1.0 
    13575.3496820000         0.5435905310
     2035.2333680000         1.0145543947
      463.2256235900         1.7315731970
      131.2001959800         2.6910376290
       42.8530158910         3.6044547126
       15.5841857660         3.7025556986
s   2 1.0 
        6.2067138508         1.8383540830
        2.5764896527         0.5447575605
s   1 1.0 
        0.5769633942         0.4718145038
s   1 1.0 
        0.2297283136         0.2364944676
s   1 1.0 
        0.0951644400         0.1221141848
p   4 1.0 
       34.6972322440         1.3596651510
        7.9582622826         1.4512589489
        2.3780826883         1.2709231421
        0.8143320818         0.8025721189
p   1 1.0 
        0.2888754725         0.3018758868
p   1 1.0 
        0.1005682367         0.0807265016
d   1 1.0 
        0.8000000000         1.9292013661

  5 0
s   6 1.0 
    13575.3496820000         0.5435905310
     2035.2333680000         1.0145543947
      463.2256235900         1.7315731970
      131.2001959800         2.6910376290
       42.8530158910         3.6044547126
       15.5841857660         3.7025556986
s   2 1.0 
        6.2067138508         1.8383540830
        2.5764896527         0.5447575605
s   1 1.0 
        0.5769633942         0.4718145038
s   1 1.0 
        0.2297283136         0.2364944676
s   1 1.0 
        0.0951644400         0.1221141848
p   4 1.0 
       34.6972322440         1.3596651510
        7.9582622826         1.4512589489
        2.3780826883         1.2709231421
        0.8143320818         0.8025721189
p   1 1.0 
        0.2888754725         0.3018758868
p   1 1.0 
        0.1005682367         0.0807265016
d   1 1.0 
        0.8000000000         1.9292013661

  6 0
s   6 1.0 
    19730.8006470000         0.6956035199
     2957.8958745000         1.2986099328
      673.2213359500         2.2190880635
      190.6824949400         3.4636607549
       62.2954418980         4.6967555531
       22.6541611820         4.9522510945
s   2 1.0 
        8.9791477428         2.3880677979
        3.6863002370         0.7337878750
s   1 1.0 
        0.8466007680         0.6290267082
s   1 1.0 
        0.3364713377         0.3148626514
s   1 1.0 
        0.1364765368         0.1600308040
p   4 1.0 
       49.2003805100         2.1264813968
       11.3467905370         2.3279367185
        3.4273972411         2.0485729192
        1.1785525134         1.2607319854
p   1 1.0 
        0.4164220497         0.4768230427
p   1 1.0 
        0.1426082601         0.1249168256
d   1 1.0 
        1.1000000000         3.3682729889
d   1 1.0 
        0.2000000000         0.1705189210

  7 0
s   6 1.0 
    13575.3496820000         0.5435905310
     2035.2333680000         1.0145543947
      463.2256235900         1.7315731970
      131.2001959800         2.6910376290
       42.8530158910         3.6044547126
       15.5841857660         3.7025556986
s   2 1.0 
        6.2067138508         1.8383540830
        2.5764896527         0.5447575605
s   1 1.0 
        0.5769633942         0.4718145038
s   1 1.0 
        0.2297283136         0.2364944676
s   1 1.0 
        0.0951644400         0.1221141848
p   4 1.0 
       34.6972322440         1.3596651510
        7.9582622826         1.4512589489
        2.3780826883         1.2709231421
        0.8143320818         0.8025721189
p   1 1.0 
        0.2888754725         0.3018758868
p   1 1.0 
        0.1005682367         0.0807265016
d   1 1.0 
        0.8000000000         1.9292013661

  8 0
s   6 1.0 
    19730.8006470000         0.6956035199
     2957.8958745000         1.2986099328
      673.2213359500         2.2190880635
      190.6824949400         3.4636607549
       62.2954418980         4.6967555531
       22.6541611820         4.9522510945
s   2 1.0 
        8.9791477428         2.3880677979
        3.6863002370         0.7337878750
s   1 1.0 
        0.8466007680         0.6290267082
s   1 1.0 
        0.3364713377         0.3148626514
s   1 1.0 
        0.1364765368         0.1600308040
p   4 1.0 
       49.2003805100         2.1264813968
       11.3467905370         2.3279367185
        3.4273972411         2.0485729192
        1.1785525134         1.2607319854
p   1 1.0 
        0.4164220497         0.4768230427
p   1 1.0 
        0.1426082601         0.1249168256
d   1 1.0 
        1.1000000000         3.3682729889
d   1 1.0 
        0.2000000000         0.1705189210

  9 0
s   6 1.0 
    13575.3496820000         0.5435905310
     2035.2333680000         1.0145543947
      463.2256235900         1.7315731970
      131.2001959800         2.6910376290
       42.8530158910         3.6044547126
       15.5841857660         3.7025556986
s   2 1.0 
        6.2067138508         1.8383540830
        2.5764896527         0.5447575605
s   1 1.0 
        0.5769633942         0.4718145038
s   1 1.0 
        0.2297283136         0.2364944676
s   1 1.0 
        0.0951644400         0.1221141848
p   4 1.0 
       34.6972322440         1.3596651510
        7.9582622826         1.4512589489
        2.3780826883         1.2709231421
        0.8143320818         0.8025721189
p   1 1.0 
        0.2888754725         0.3018758868
p   1 1.0 
        0.1005682367         0.0807265016
d   1 1.0 
        0.8000000000         1.9292013661

 10 0
s   6 1.0 
    13575.3496820000         0.5435905310
     2035.2333680000         1.0145543947
      463.2256235900         1.7315731970
      131.2001959800         2.6910376290
       42.8530158910         3.6044547126
       15.5841857660         3.7025556986
s   2 1.0 
        6.2067138508         1.8383540830
        2.5764896527         0.5447575605
s   1 1.0 
        0.5769633942         0.4718145038
s   1 1.0 
        0.2297283136         0.2364944676
s   1 1.0 
        0.0951644400         0.1221141848
p   4 1.0 
       34.6972322440         1.3596651510
        7.9582622826         1.4512589489
        2.3780826883         1.2709231421
        0.8143320818         0.8025721189
p   1 1.0 
        0.2888754725         0.3018758868
p   1 1.0 
        0.1005682367         0.0807265016
d   1 1.0 
        0.8000000000         1.9292013661

 11 0
s   6 1.0 
    13575.3496820000         0.5435905310
     2035.2333680000         1.0145543947
      463.2256235900         1.7315731970
      131.2001959800         2.6910376290
       42.8530158910         3.6044547126
       15.5841857660         3.7025556986
s   2 1.0 
        6.2067138508         1.8383540830
        2.5764896527         0.5447575605
s   1 1.0 
        0.5769633942         0.4718145038
s   1 1.0 
        0.2297283136         0.2364944676
s   1 1.0 
        0.0951644400         0.1221141848
p   4 1.0 
       34.6972322440         1.3596651510
        7.9582622826         1.4512589489
        2.3780826883         1.2709231421
        0.8143320818         0.8025721189
p   1 1.0 
        0.2888754725         0.3018758868
p   1 1.0 
        0.1005682367         0.0807265016
d   1 1.0 
        0.8000000000         1.9292013661

 12 0
s   6 1.0 
    13575.3496820000         0.5435905310
     2035.2333680000         1.0145543947
      463.2256235900         1.7315731970
      131.2001959800         2.6910376290
       42.8530158910         3.6044547126
       15.5841857660         3.7025556986
s   2 1.0 
        6.2067138508         1.8383540830
        2.5764896527         0.5447575605
s   1 1.0 
        0.5769633942         0.4718145038
s   1 1.0 
        0.2297283136         0.2364944676
s   1 1.0 
        0.0951644400         0.1221141848
p   4 1.0 
       34.6972322440         1.3596651510
        7.9582622826         1.4512589489
        2.3780826883         1.2709231421
        0.8143320818         0.8025721189
p   1 1.0 
        0.2888754725         0.3018758868
p   1 1.0 
        0.1005682367         0.0807265016
d   1 1.0 
        0.8000000000         1.9292013661

 13 0
s   6 1.0 
    27032.3826310000         0.8598581479
     4052.3871392000         1.6055305368
      922.3272271000         2.7458778516
      261.2407098900         4.2987674426
       85.3546413510         5.8797663284
       31.0350352450         6.3163983216
s   2 1.0 
       12.2608607280         2.9812147522
        4.9987076005         0.9419559635
s   1 1.0 
        1.1703108158         0.8019291610
s   1 1.0 
        0.4647474099         0.4011648062
s   1 1.0 
        0.1850453636         0.2010799406
p   4 1.0 
       63.2749548010         3.0572017144
       14.6270493790         3.3844839414
        4.4501223456         2.9474262132
        1.5275799647         1.7118271494
p   1 1.0 
        0.5293511794         0.6436057926
p   1 1.0 
        0.1747842127         0.1610897254
d   1 1.0 
        1.2000000000         3.9222679946
d   1 1.0 
        0.2000000000         0.1705189210

 14 0
s   6 1.0 
    27032.3826310000         0.8598581479
     4052.3871392000         1.6055305368
      922.3272271000         2.7458778516
      261.2407098900         4.2987674426
       85.3546413510         5.8797663284
       31.0350352450         6.3163983216
s   2 1.0 
       12.2608607280         2.9812147522
        4.9987076005         0.9419559635
s   1 1.0 
        1.1703108158         0.8019291610
s   1 1.0 
        0.4647474099         0.4011648062
s   1 1.0 
        0.1850453636         0.2010799406
p   4 1.0 
       63.2749548010         3.0572017144
       14.6270493790         3.3844839414
        4.4501223456         2.9474262132
        1.5275799647         1.7118271494
p   1 1.0 
        0.5293511794         0.6436057926
p   1 1.0 
        0.1747842127         0.1610897254
d   1 1.0 
        1.2000000000         3.9222679946
d   1 1.0 
        0.2000000000         0.1705189210

 15 0
s   3 1.0 
       18.7354104400         0.2149136950
        2.8256504000         0.3645880840
        0.6401347000         0.4150643621
s   1 1.0 
        0.1756074600         0.1933380407
p   1 1.0 
        1.0000000000         1.4254109407

 16 0
s   3 1.0 
       18.7354104400         0.2149136950
        2.8256504000         0.3645880840
        0.6401347000         0.4150643621
s   1 1.0 
        0.1756074600         0.1933380407
p   1 1.0 
        1.0000000000         1.4254109407

 17 0
s   3 1.0 
       18.7354104400         0.2149136950
        2.8256504000         0.3645880840
        0.6401347000         0.4150643621
s   1 1.0 
        0.1756074600         0.1933380407
p   1 1.0 
        1.0000000000         1.4254109407

 18 0
s   3 1.0 
       18.7354104400         0.2149136950
        2.8256504000         0.3645880840
        0.6401347000         0.4150643621
s   1 1.0 
        0.1756074600         0.1933380407
p   1 1.0 
        1.0000000000         1.4254109407

 19 0
s   3 1.0 
       18.7354104400         0.2149136950
        2.8256504000         0.3645880840
        0.6401347000         0.4150643621
s   1 1.0 
        0.1756074600         0.1933380407
p   1 1.0 
        1.0000000000         1.4254109407

 20 0
s   3 1.0 
       18.7354104400         0.2149136950
        2.8256504000         0.3645880840
        0.6401347000         0.4150643621
s   1 1.0 
        0.1756074600         0.1933380407
p   1 1.0 
        1.0000000000         1.4254109407

 21 0
s   3 1.0 
       18.7354104400         0.2149136950
        2.8256504000         0.3645880840
        0.6401347000         0.4150643621
s   1 1.0 
        0.1756074600         0.1933380407
p   1 1.0 
        1.0000000000         1.4254109407

[5D]
[7F]
[9G]
[MO]
 Sym=     1a
 Ene= -1.89973345905185E+01
 Spin= Alpha
 Occup= 2.000000
  1      -0.000000589775
  2       0.000003523078
  3      -0.000042084633
  4       0.000240976828
  5      -0.000403008750
  6       0.000000716541
  7       0.000010228422
  8      -0.000001884798
  9      -0.000038428259
 10      -0.000056512181
 11       0.000014271608
 12      -0.001109973123
 13       0.000547689396
 14       0.000039466281
 15      -0.000006987421
 16      -0.000002576924
 17      -0.000005139696
 18      -0.000008998622
 19       0.000012185489
 20       0.000138317814
 21      -0.000023852540
 22       0.000031461392
 23       0.000118150122
 24       0.000238215148
 25       0.000002021535
 26      -0.000010065514
 27       0.000123080782
 28      -0.000715067807
 29      -0.006874161563
 30       0.000019586848
 31      -0.000004194196
 32      -0.000001422340
 33      -0.000202348512
 34       0.000062563739
 35       0.000012840722
 36      -0.002107613403
 37       0.001144000963
 38       0.000061136861
 39      -0.000003114244
 40      -0.000000724742
 41       0.000003524474
 42       0.000017666474
 43      -0.000011488634
 44      -0.000001181767
 45       0.000005733534
 46      -0.000027860632
 47      -0.000005034863
 48      -0.000410698345
 49      -0.000010986946
 50       0.000003980678
 51       0.000000518628
 52       0.000130043836
 53       0.000111213741
 54      -0.000032904773
 55       0.000947116620
 56       0.008054149769
 57      -0.001420783183
 58       0.000002729874
 59       0.000006407303
 60       0.000003028929
 61      -0.000008030771
 62      -0.000029702090
 63      -0.000000565880
 64       0.000002779642
 65      -0.000001462919
 66      -0.000170839850
 67       0.001107937051
 68       0.000011946351
 69       0.000027246695
 70      -0.000005840582
 71      -0.000012063554
 72      -0.000263578970
 73       0.000044235776
 74       0.001315378069
 75      -0.001776382354
 76       0.000135805182
 77       0.000001092012
 78       0.000000574616
 79       0.000002580665
 80       0.000008282731
 81      -0.000007735189
 82      -0.000001177467
 83       0.000006063452
 84      -0.000114897679
 85       0.000957694226
 86       0.000654913327
 87       0.000020894797
 88      -0.000006700512
 89      -0.000001391117
 90      -0.000283789624
 91      -0.000019466040
 92       0.000036576397
 93      -0.001247951913
 94       0.000783606489
 95       0.000017063776
 96      -0.000013708802
 97      -0.000003350970
 98      -0.000007002146
 99      -0.000010433273
100       0.000009650004
101       0.000000405571
102      -0.000002393132
103       0.000023514500
104      -0.000096875025
105       0.000762889200
106       0.000000240148
107      -0.000005610900
108       0.000000940281
109      -0.000008695055
110       0.000025503849
111      -0.000003374002
112      -0.000056723143
113      -0.000386667539
114       0.000070685995
115      -0.000004026407
116      -0.000001010295
117      -0.000000764970
118       0.000002142314
119      -0.000000383449
120       0.000011526619
121       0.000004625922
122      -0.000009751148
123      -0.000058895614
124       0.000026152517
125       0.000000519574
126      -0.000002610289
127       0.000032051276
128      -0.000300152748
129      -0.000615942351
130      -0.000006648288
131      -0.000000351365
132       0.000000857784
133       0.000072046640
134       0.000071535446
135      -0.000020266204
136       0.000170948876
137       0.000321269014
138      -0.000072553258
139      -0.000001460877
140      -0.000000437434
141       0.000000267883
142       0.000003000005
143      -0.000001321474
144      -0.000001444457
145       0.000008617689
146      -0.000083678809
147       0.000345528634
148      -0.001435629643
149      -0.000001065589
150       0.000007906780
151      -0.000001220625
152      -0.000003980427
153      -0.000027451069
154       0.000005184165
155       0.000771566424
156       0.000673388619
157      -0.000201242801
158       0.000000611015
159       0.000000241282
160       0.000000093785
161      -0.000000743641
162      -0.000000401288
163       0.000022384337
164       0.000033891581
165      -0.000012442828
166      -0.000161264030
167      -0.000060351325
168      -0.000002392969
169       0.000011774809
170      -0.000104220565
171       0.000506719636
172      -0.000861782656
173      -0.000002713815
174       0.000008988871
175      -0.000001141711
176       0.000127031850
177      -0.000075873615
178      -0.000002516425
179       0.001847456987
180       0.000310505694
181      -0.000266487680
182       0.000001035350
183      -0.000000148145
184      -0.000003786354
185      -0.000015232276
186       0.000012784756
187       0.000003703362
188      -0.000017775950
189       0.000000702842
190       0.000853132620
191      -0.004893354603
192      -0.000033626064
193      -0.000102443145
194       0.000020548233
195      -0.000121550073
196       0.000346403378
197      -0.000042005958
198       0.009204223739
199       0.001259871357
200      -0.001302892517
201      -0.000009403691
202      -0.000008502639
203      -0.000004810996
204       0.000011512426
205       0.000031250150
206       0.000007267637
207      -0.000036963004
208       0.000413112376
209      -0.000947833692
210       0.017716724379
211       0.000032864610
212      -0.000064627262
213       0.000005902700
214      -0.000407806593
215       0.000051397000
216       0.000043209970
217       0.006114130862
218      -0.003150445761
219      -0.000246842700
220       0.000081210741
221       0.000006167794
222       0.000022821962
223       0.000037344766
224       0.000046390596
225       0.000027912105
226      -0.000146663309
227       0.000373441799
228      -0.001353412191
229      -0.008567859788
230       0.000178620166
231      -0.000232000252
232       0.000014153716
233      -0.000389928795
234      -0.000361259746
235       0.000105226217
236      -0.005361596774
237       0.001291035905
238       0.000463360696
239      -0.000263533125
240       0.000010453134
241      -0.000066670584
242      -0.000187487562
243      -0.000287726837
244      -0.000007385633
245       0.000003111426
246      -0.000130909895
247       0.000813990162
248      -0.002467029508
249       0.000079169239
250      -0.000018904733
251      -0.000006999135
252      -0.000252711021
253      -0.000001192116
254       0.000032099737
255      -0.000357980790
256       0.000729208697
257      -0.000070724470
258       0.000052882405
259       0.000012125065
260       0.000007879115
261      -0.000028719908
262       0.000020835134
263       0.000221634536
264      -0.000054069312
265      -0.000040276283
266      -0.000071216268
267       0.000691838971
268       0.435522174140
269       0.639188661376
270       0.034488827742
271      -0.023196701972
272       0.017562037102
273      -0.001641855913
274       0.000246783241
275       0.000168111282
276       0.001936527299
277      -0.000703417957
278      -0.000133716526
279      -0.002928906640
280       0.002643765246
281      -0.000045611735
282       0.000180831692
283       0.000028805847
284       0.000060776264
285       0.000074038086
286       0.000018161166
287      -0.000524126760
288      -0.000018647611
289      -0.000125464004
290      -0.000225525825
291      -0.000440139704
292      -0.000042576676
293       0.000648584429
294       0.000029072711
295       0.000005993862
296      -0.000004384485
297       0.000613410081
298      -0.001669916137
299       0.000138489416
300       0.000191454406
301      -0.000047390660
302       0.000165139288
303      -0.001195545622
304      -0.000000563547
305      -0.000016460463
306       0.000002648811
307       0.000004744297
308      -0.000398008512
309      -0.000016676866
310       0.000014322520
311      -0.000000383586
312      -0.000001079978
313      -0.000076247315
314       0.000006812811
315      -0.000001861143
316      -0.000000488295
317      -0.000026906380
318       0.000214002184
319      -0.000011399480
320      -0.000015012125
321       0.000003759929
322       0.000044418358
323      -0.000164672135
324      -0.000004461760
325       0.000010871896
326      -0.000001346196
 Sym=     1a
 Ene= -1.89360758771190E+01
 Spin= Alpha
 Occup= 2.000000
  1      -0.000000710705
  2       0.000004267216
  3      -0.000051920336
  4       0.000213018150
  5      -0.000402400136
  6       0.000003937979
  7       0.000000910359
  8      -0.000000512004
  9      -0.000026023451
 10      -0.000017005677
 11       0.000005403821
 12       0.000554051398
 13      -0.000049396752
 14      -0.000055214401
 15      -0.000008011315
 16      -0.000002084457
 17      -0.000002953596
 18      -0.000001361420
 19       0.000003268269
 20       0.000037305551
 21       0.000033165066
 22       0.000023302113
 23      -0.000022994133
 24      -0.000133624981
 25      -0.000000776172
 26       0.000003708642
 27      -0.000001273877
 28       0.000024714165
 29      -0.000164265064
 30       0.000013805231
 31       0.000002141210
 32      -0.000001999895
 33      -0.000042454865
 34       0.000098458205
 35      -0.000011066291
 36       0.000877654096
 37       0.000587896121
 38      -0.000198564791
 39       0.000009358061
 40       0.000001309776
 41       0.000005130645
 42       0.000010979898
 43      -0.000003981441
 44       0.000000639880
 45      -0.000003282611
 46       0.000077691221
 47      -0.000535856592
 48      -0.001377308254
 49       0.000023891530
 50      -0.000022807280
 51       0.000000577069
 52      -0.000174670373
 53       0.000243853087
 54      -0.000017533821
 55      -0.001504695593
 56       0.000664898844
 57       0.000064131576
 58       0.000015020225
 59       0.000006947706
 60       0.000003303284
 61      -0.000014783855
 62      -0.000012393087
 63      -0.000000449838
 64       0.000002440128
 65      -0.000064599692
 66       0.000315531245
 67       0.003061446327
 68       0.000020346793
 69       0.000009407103
 70      -0.000003732411
 71      -0.000282192253
 72      -0.000038443334
 73       0.000038385689
 74      -0.000176142135
 75       0.001949320000
 76      -0.000291787037
 77      -0.000011786256
 78      -0.000008057274
 79      -0.000003388378
 80       0.000016964328
 81       0.000021945172
 82       0.000000661092
 83      -0.000003268964
 84       0.000029315103
 85      -0.000185414785
 86      -0.003324108831
 87      -0.000009287077
 88      -0.000007754004
 89       0.000002440922
 90       0.000121816202
 91       0.000017871011
 92      -0.000017604236
 93       0.000890283467
 94       0.001052263874
 95      -0.000279113754
 96      -0.000003051171
 97      -0.000000754108
 98      -0.000001861645
 99      -0.000003341328
100       0.000002894680
101       0.000000217703
102      -0.000001302059
103       0.000021595887
104      -0.000093849236
105      -0.000059468402
106      -0.000001497846
107      -0.000007700425
108       0.000001472347
109       0.000022582518
110       0.000050764561
111      -0.000011124687
112      -0.000017640175
113      -0.000194946499
114       0.000034949857
115       0.000001706749
116       0.000001149666
117       0.000000504172
118      -0.000002251352
119      -0.000003036595
120       0.000010652235
121      -0.000003132262
122      -0.000003532118
123      -0.000011815048
124       0.000037806102
125      -0.000000013838
126       0.000000056940
127      -0.000002948216
128      -0.000040872775
129      -0.000414838433
130      -0.000001888775
131       0.000001763282
132      -0.000000099209
133      -0.000002400932
134       0.000049333110
135      -0.000007524944
136       0.000135076741
137       0.000187113286
138      -0.000046424050
139      -0.000002670720
140      -0.000000789893
141       0.000000363281
142       0.000005232110
143      -0.000002363924
144      -0.000000681555
145       0.000004070775
146      -0.000040970096
147       0.000184172607
148      -0.000600677445
149      -0.000000356782
150       0.000000998268
151      -0.000000132862
152      -0.000005809974
153       0.000000137767
154       0.000000711950
155       0.000493778071
156       0.000205359547
157      -0.000091504945
158      -0.000000385398
159      -0.000000110538
160       0.000000246575
161       0.000001277407
162      -0.000000913088
163       0.000034970962
164       0.000019860244
165      -0.000012154822
166      -0.000124377733
167       0.000012228661
168      -0.000001611297
169       0.000008037712
170      -0.000101597676
171       0.000584426100
172       0.001142046117
173       0.000003655288
174       0.000002440604
175      -0.000000773150
176      -0.000013779126
177       0.000046782360
178      -0.000006204175
179       0.000126458083
180       0.000291255803
181      -0.000063807744
182      -0.000008832807
183      -0.000000362315
184      -0.000003729418
185      -0.000008927559
186      -0.000002817329
187       0.000000173160
188      -0.000001232903
189       0.000079617112
190      -0.000406748741
191      -0.004650788920
192      -0.000028220007
193      -0.000030504134
194       0.000008364276
195       0.000587190324
196       0.000180857820
197      -0.000100801271
198       0.004310991849
199       0.000880067733
200      -0.000654346625
201       0.000044445622
202       0.000023798144
203       0.000004999433
204      -0.000072701303
205      -0.000032160723
206       0.000004362640
207      -0.000022533093
208       0.000154259129
209       0.000513726141
210       0.011071822957
211      -0.000149470388
212       0.000021166181
213       0.000014889842
214       0.000905986512
215      -0.000442467944
216      -0.000039554912
217      -0.000027558411
218      -0.001433957777
219       0.000233738119
220       0.000011961154
221       0.000010094068
222       0.000000843042
223      -0.000030167637
224      -0.000017510198
225       0.000020250975
226      -0.000113412058
227       0.001089319854
228      -0.004091844727
229      -0.009137128801
230      -0.000426789086
231       0.000037769121
232       0.000047277343
233      -0.000496058716
234      -0.000375104695
235       0.000120721630
236       0.003122073819