22
        Energy:      55.3951724
N         -1.00666        1.39295       -0.00512
C         -2.03579        0.54164        0.21495
C         -1.56669       -0.77339        0.29225
C         -0.19971       -0.69119        0.10929
C          0.09682        0.63175       -0.06650
N          1.36406        1.07011       -0.27388
C          2.38313        0.15936       -0.30891
C          2.12153       -1.21794       -0.13190
C          0.80375       -1.65760        0.08206
C         -2.34311       -2.01247        0.52052
C         -3.67541       -2.01895        0.69116
C         -4.42708       -3.27110        0.91764
O         -5.63852       -3.22485        1.06736
O         -3.78952       -4.46175        0.96047
H         -4.23673       -1.09067        0.66596
H         -1.06294        2.43064       -0.10615
H          3.39778        0.49669       -0.47353
H         -4.27062       -5.28833        1.10805
H         -1.79808       -2.95087        0.54886
H         -3.06349        0.86369        0.31247
H          2.93322       -1.93331       -0.16084
H          0.58502       -2.70806        0.21952
