[Molden Format]
[Title]
 Molden file created by orca_2mkl for BaseName=LUMO

[Atoms] AU
N    1   7         -1.8539685039         2.5522302543        -0.0057545366 
C    2   6         -3.8663251604         0.9857599512         0.4145597867 
C    3   6         -3.0506851694        -1.4991258335         0.5691038658 
C    4   6         -0.3501649314        -1.4216422135         0.2157966785 
C    5   6          0.3351835124         1.1415613676        -0.1389094234 
N    6   7          2.6281484939         2.0689163731        -0.5290317795 
C    7   6          4.4552118039         0.3253742932        -0.5811867733 
C    8   6          4.0362804703        -2.2720294819        -0.2570668769 
C    9   6          1.6095957366        -3.1837615769         0.1484712658 
C   10   6         -4.5321978397        -3.7354823723         0.9917451344 
C   11   6         -7.0566379126        -3.8494994054         1.3197759997 
C   12   6         -8.4510208925        -6.1873830361         1.7443870730 
O   13   8        -10.7268299993        -6.2976017935         2.0460637181 
O   14   8         -6.9688215940        -8.3031035320         1.7779944796 
H   15   1         -8.2444843077        -2.1762083165         1.2906467456 
H   16   1         -1.9235034768         4.4453467363        -0.1939175921 
H   17   1          6.3634687585         1.0247043464        -0.8983600712 
H   18   1         -8.1138733201        -9.7010795203         2.0719892290 
H   19   1         -3.4848771426        -5.5042564233         1.0482044285 
H   20   1         -5.7560330009         1.7448378284         0.5772586689 
H   21   1          5.6325955571        -3.5573614364        -0.3276450372 
H   22   1          1.2650174701        -5.1919526123         0.4014312027 
[GTO]
  1 0
s   6 1.0 
    19730.8006470000         0.6956035199
     2957.8958745000         1.2986099328
      673.2213359500         2.2190880635
      190.6824949400         3.4636607549
       62.2954418980         4.6967555531
       22.6541611820         4.9522510945
s   2 1.0 
        8.9791477428         2.3880677979
        3.6863002370         0.7337878750
s   1 1.0 
        0.8466007680         0.6290267082
s   1 1.0 
        0.3364713377         0.3148626514
s   1 1.0 
        0.1364765368         0.1600308040
p   4 1.0 
       49.2003805100         2.1264813968
       11.3467905370         2.3279367185
        3.4273972411         2.0485729192
        1.1785525134         1.2607319854
p   1 1.0 
        0.4164220497         0.4768230427
p   1 1.0 
        0.1426082601         0.1249168256
d   1 1.0 
        1.1000000000         3.3682729889
d   1 1.0 
        0.2000000000         0.1705189210

  2 0
s   6 1.0 
    13575.3496820000         0.5435905310
     2035.2333680000         1.0145543947
      463.2256235900         1.7315731970
      131.2001959800         2.6910376290
       42.8530158910         3.6044547126
       15.5841857660         3.7025556986
s   2 1.0 
        6.2067138508         1.8383540830
        2.5764896527         0.5447575605
s   1 1.0 
        0.5769633942         0.4718145038
s   1 1.0 
        0.2297283136         0.2364944676
s   1 1.0 
        0.0951644400         0.1221141848
p   4 1.0 
       34.6972322440         1.3596651510
        7.9582622826         1.4512589489
        2.3780826883         1.2709231421
        0.8143320818         0.8025721189
p   1 1.0 
        0.2888754725         0.3018758868
p   1 1.0 
        0.1005682367         0.0807265016
d   1 1.0 
        0.8000000000         1.9292013661

  3 0
s   6 1.0 
    13575.3496820000         0.5435905310
     2035.2333680000         1.0145543947
      463.2256235900         1.7315731970
      131.2001959800         2.6910376290
       42.8530158910         3.6044547126
       15.5841857660         3.7025556986
s   2 1.0 
        6.2067138508         1.8383540830
        2.5764896527         0.5447575605
s   1 1.0 
        0.5769633942         0.4718145038
s   1 1.0 
        0.2297283136         0.2364944676
s   1 1.0 
        0.0951644400         0.1221141848
p   4 1.0 
       34.6972322440         1.3596651510
        7.9582622826         1.4512589489
        2.3780826883         1.2709231421
        0.8143320818         0.8025721189
p   1 1.0 
        0.2888754725         0.3018758868
p   1 1.0 
        0.1005682367         0.0807265016
d   1 1.0 
        0.8000000000         1.9292013661

  4 0
s   6 1.0 
    13575.3496820000         0.5435905310
     2035.2333680000         1.0145543947
      463.2256235900         1.7315731970
      131.2001959800         2.6910376290
       42.8530158910         3.6044547126
       15.5841857660         3.7025556986
s   2 1.0 
        6.2067138508         1.8383540830
        2.5764896527         0.5447575605
s   1 1.0 
        0.5769633942         0.4718145038
s   1 1.0 
        0.2297283136         0.2364944676
s   1 1.0 
        0.0951644400         0.1221141848
p   4 1.0 
       34.6972322440         1.3596651510
        7.9582622826         1.4512589489
        2.3780826883         1.2709231421
        0.8143320818         0.8025721189
p   1 1.0 
        0.2888754725         0.3018758868
p   1 1.0 
        0.1005682367         0.0807265016
d   1 1.0 
        0.8000000000         1.9292013661

  5 0
s   6 1.0 
    13575.3496820000         0.5435905310
     2035.2333680000         1.0145543947
      463.2256235900         1.7315731970
      131.2001959800         2.6910376290
       42.8530158910         3.6044547126
       15.5841857660         3.7025556986
s   2 1.0 
        6.2067138508         1.8383540830
        2.5764896527         0.5447575605
s   1 1.0 
        0.5769633942         0.4718145038
s   1 1.0 
        0.2297283136         0.2364944676
s   1 1.0 
        0.0951644400         0.1221141848
p   4 1.0 
       34.6972322440         1.3596651510
        7.9582622826         1.4512589489
        2.3780826883         1.2709231421
        0.8143320818         0.8025721189
p   1 1.0 
        0.2888754725         0.3018758868
p   1 1.0 
        0.1005682367         0.0807265016
d   1 1.0 
        0.8000000000         1.9292013661

  6 0
s   6 1.0 
    19730.8006470000         0.6956035199
     2957.8958745000         1.2986099328
      673.2213359500         2.2190880635
      190.6824949400         3.4636607549
       62.2954418980         4.6967555531
       22.6541611820         4.9522510945
s   2 1.0 
        8.9791477428         2.3880677979
        3.6863002370         0.7337878750
s   1 1.0 
        0.8466007680         0.6290267082
s   1 1.0 
        0.3364713377         0.3148626514
s   1 1.0 
        0.1364765368         0.1600308040
p   4 1.0 
       49.2003805100         2.1264813968
       11.3467905370         2.3279367185
        3.4273972411         2.0485729192
        1.1785525134         1.2607319854
p   1 1.0 
        0.4164220497         0.4768230427
p   1 1.0 
        0.1426082601         0.1249168256
d   1 1.0 
        1.1000000000         3.3682729889
d   1 1.0 
        0.2000000000         0.1705189210

  7 0
s   6 1.0 
    13575.3496820000         0.5435905310
     2035.2333680000         1.0145543947
      463.2256235900         1.7315731970
      131.2001959800         2.6910376290
       42.8530158910         3.6044547126
       15.5841857660         3.7025556986
s   2 1.0 
        6.2067138508         1.8383540830
        2.5764896527         0.5447575605
s   1 1.0 
        0.5769633942         0.4718145038
s   1 1.0 
        0.2297283136         0.2364944676
s   1 1.0 
        0.0951644400         0.1221141848
p   4 1.0 
       34.6972322440         1.3596651510
        7.9582622826         1.4512589489
        2.3780826883         1.2709231421
        0.8143320818         0.8025721189
p   1 1.0 
        0.2888754725         0.3018758868
p   1 1.0 
        0.1005682367         0.0807265016
d   1 1.0 
        0.8000000000         1.9292013661

  8 0
s   6 1.0 
    13575.3496820000         0.5435905310
     2035.2333680000         1.0145543947
      463.2256235900         1.7315731970
      131.2001959800         2.6910376290
       42.8530158910         3.6044547126
       15.5841857660         3.7025556986
s   2 1.0 
        6.2067138508         1.8383540830
        2.5764896527         0.5447575605
s   1 1.0 
        0.5769633942         0.4718145038
s   1 1.0 
        0.2297283136         0.2364944676
s   1 1.0 
        0.0951644400         0.1221141848
p   4 1.0 
       34.6972322440         1.3596651510
        7.9582622826         1.4512589489
        2.3780826883         1.2709231421
        0.8143320818         0.8025721189
p   1 1.0 
        0.2888754725         0.3018758868
p   1 1.0 
        0.1005682367         0.0807265016
d   1 1.0 
        0.8000000000         1.9292013661

  9 0
s   6 1.0 
    13575.3496820000         0.5435905310
     2035.2333680000         1.0145543947
      463.2256235900         1.7315731970
      131.2001959800         2.6910376290
       42.8530158910         3.6044547126
       15.5841857660         3.7025556986
s   2 1.0 
        6.2067138508         1.8383540830
        2.5764896527         0.5447575605
s   1 1.0 
        0.5769633942         0.4718145038
s   1 1.0 
        0.2297283136         0.2364944676
s   1 1.0 
        0.0951644400         0.1221141848
p   4 1.0 
       34.6972322440         1.3596651510
        7.9582622826         1.4512589489
        2.3780826883         1.2709231421
        0.8143320818         0.8025721189
p   1 1.0 
        0.2888754725         0.3018758868
p   1 1.0 
        0.1005682367         0.0807265016
d   1 1.0 
        0.8000000000         1.9292013661

 10 0
s   6 1.0 
    13575.3496820000         0.5435905310
     2035.2333680000         1.0145543947
      463.2256235900         1.7315731970
      131.2001959800         2.6910376290
       42.8530158910         3.6044547126
       15.5841857660         3.7025556986
s   2 1.0 
        6.2067138508         1.8383540830
        2.5764896527         0.5447575605
s   1 1.0 
        0.5769633942         0.4718145038
s   1 1.0 
        0.2297283136         0.2364944676
s   1 1.0 
        0.0951644400         0.1221141848
p   4 1.0 
       34.6972322440         1.3596651510
        7.9582622826         1.4512589489
        2.3780826883         1.2709231421
        0.8143320818         0.8025721189
p   1 1.0 
        0.2888754725         0.3018758868
p   1 1.0 
        0.1005682367         0.0807265016
d   1 1.0 
        0.8000000000         1.9292013661

 11 0
s   6 1.0 
    13575.3496820000         0.5435905310
     2035.2333680000         1.0145543947
      463.2256235900         1.7315731970
      131.2001959800         2.6910376290
       42.8530158910         3.6044547126
       15.5841857660         3.7025556986
s   2 1.0 
        6.2067138508         1.8383540830
        2.5764896527         0.5447575605
s   1 1.0 
        0.5769633942         0.4718145038
s   1 1.0 
        0.2297283136         0.2364944676
s   1 1.0 
        0.0951644400         0.1221141848
p   4 1.0 
       34.6972322440         1.3596651510
        7.9582622826         1.4512589489
        2.3780826883         1.2709231421
        0.8143320818         0.8025721189
p   1 1.0 
        0.2888754725         0.3018758868
p   1 1.0 
        0.1005682367         0.0807265016
d   1 1.0 
        0.8000000000         1.9292013661

 12 0
s   6 1.0 
    13575.3496820000         0.5435905310
     2035.2333680000         1.0145543947
      463.2256235900         1.7315731970
      131.2001959800         2.6910376290
       42.8530158910         3.6044547126
       15.5841857660         3.7025556986
s   2 1.0 
        6.2067138508         1.8383540830
        2.5764896527         0.5447575605
s   1 1.0 
        0.5769633942         0.4718145038
s   1 1.0 
        0.2297283136         0.2364944676
s   1 1.0 
        0.0951644400         0.1221141848
p   4 1.0 
       34.6972322440         1.3596651510
        7.9582622826         1.4512589489
        2.3780826883         1.2709231421
        0.8143320818         0.8025721189
p   1 1.0 
        0.2888754725         0.3018758868
p   1 1.0 
        0.1005682367         0.0807265016
d   1 1.0 
        0.8000000000         1.9292013661

 13 0
s   6 1.0 
    27032.3826310000         0.8598581479
     4052.3871392000         1.6055305368
      922.3272271000         2.7458778516
      261.2407098900         4.2987674426
       85.3546413510         5.8797663284
       31.0350352450         6.3163983216
s   2 1.0 
       12.2608607280         2.9812147522
        4.9987076005         0.9419559635
s   1 1.0 
        1.1703108158         0.8019291610
s   1 1.0 
        0.4647474099         0.4011648062
s   1 1.0 
        0.1850453636         0.2010799406
p   4 1.0 
       63.2749548010         3.0572017144
       14.6270493790         3.3844839414
        4.4501223456         2.9474262132
        1.5275799647         1.7118271494
p   1 1.0 
        0.5293511794         0.6436057926
p   1 1.0 
        0.1747842127         0.1610897254
d   1 1.0 
        1.2000000000         3.9222679946
d   1 1.0 
        0.2000000000         0.1705189210

 14 0
s   6 1.0 
    27032.3826310000         0.8598581479
     4052.3871392000         1.6055305368
      922.3272271000         2.7458778516
      261.2407098900         4.2987674426
       85.3546413510         5.8797663284
       31.0350352450         6.3163983216
s   2 1.0 
       12.2608607280         2.9812147522
        4.9987076005         0.9419559635
s   1 1.0 
        1.1703108158         0.8019291610
s   1 1.0 
        0.4647474099         0.4011648062
s   1 1.0 
        0.1850453636         0.2010799406
p   4 1.0 
       63.2749548010         3.0572017144
       14.6270493790         3.3844839414
        4.4501223456         2.9474262132
        1.5275799647         1.7118271494
p   1 1.0 
        0.5293511794         0.6436057926
p   1 1.0 
        0.1747842127         0.1610897254
d   1 1.0 
        1.2000000000         3.9222679946
d   1 1.0 
        0.2000000000         0.1705189210

 15 0
s   3 1.0 
       18.7354104400         0.2149136950
        2.8256504000         0.3645880840
        0.6401347000         0.4150643621
s   1 1.0 
        0.1756074600         0.1933380407
p   1 1.0 
        1.0000000000         1.4254109407

 16 0
s   3 1.0 
       18.7354104400         0.2149136950
        2.8256504000         0.3645880840
        0.6401347000         0.4150643621
s   1 1.0 
        0.1756074600         0.1933380407
p   1 1.0 
        1.0000000000         1.4254109407

 17 0
s   3 1.0 
       18.7354104400         0.2149136950
        2.8256504000         0.3645880840
        0.6401347000         0.4150643621
s   1 1.0 
        0.1756074600         0.1933380407
p   1 1.0 
        1.0000000000         1.4254109407

 18 0
s   3 1.0 
       18.7354104400         0.2149136950
        2.8256504000         0.3645880840
        0.6401347000         0.4150643621
s   1 1.0 
        0.1756074600         0.1933380407
p   1 1.0 
        1.0000000000         1.4254109407

 19 0
s   3 1.0 
       18.7354104400         0.2149136950
        2.8256504000         0.3645880840
        0.6401347000         0.4150643621
s   1 1.0 
        0.1756074600         0.1933380407
p   1 1.0 
        1.0000000000         1.4254109407

 20 0
s   3 1.0 
       18.7354104400         0.2149136950
        2.8256504000         0.3645880840
        0.6401347000         0.4150643621
s   1 1.0 
        0.1756074600         0.1933380407
p   1 1.0 
        1.0000000000         1.4254109407

 21 0
s   3 1.0 
       18.7354104400         0.2149136950
        2.8256504000         0.3645880840
        0.6401347000         0.4150643621
s   1 1.0 
        0.1756074600         0.1933380407
p   1 1.0 
        1.0000000000         1.4254109407

 22 0
s   3 1.0 
       18.7354104400         0.2149136950
        2.8256504000         0.3645880840
        0.6401347000         0.4150643621
s   1 1.0 
        0.1756074600         0.1933380407
p   1 1.0 
        1.0000000000         1.4254109407

[5D]
[7F]
[9G]
[MO]
 Sym=     1a
 Ene= -1.89909471675146E+01
 Spin= Alpha
 Occup= 2.000000
  1       0.000000756326
  2      -0.000004516936
  3       0.000052738465
  4      -0.000305097296
  5       0.000730555976
  6      -0.000000120287
  7      -0.000010981977
  8       0.000001188943
  9       0.000029189606
 10       0.000062529818
 11      -0.000010366546
 12       0.001110005796
 13      -0.000670445929
 14      -0.000071048898
 15       0.000006901534
 16       0.000001377313
 17       0.000003631833
 18       0.000010187035
 19      -0.000010345934
 20      -0.000154887408
 21       0.000007224393
 22      -0.000009196329
 23      -0.000126237161
 24      -0.000245618476
 25      -0.000002000372
 26       0.000009948963
 27      -0.000120748994
 28       0.000675597987
 29       0.006983962641
 30      -0.000015897251
 31       0.000007031674
 32       0.000001404479
 33       0.000171164623
 34      -0.000072958032
 35      -0.000014607628
 36       0.002114614822
 37      -0.001130911144
 38      -0.000155108540
 39       0.000002249483
 40       0.000001819067
 41      -0.000002605540
 42      -0.000018076606
 43       0.000009218508
 44       0.000001220771
 45      -0.000005955680
 46       0.000037004381
 47      -0.000046698533
 48       0.001708235909
 49       0.000014360440
 50      -0.000004476836
 51      -0.000001300355
 52      -0.000156329526
 53      -0.000106296917
 54       0.000030604503
 55      -0.000255497808
 56      -0.008464312010
 57       0.000923663573
 58      -0.000000938666
 59      -0.000004194857
 60      -0.000003651881
 61       0.000005802796
 62       0.000030240892
 63       0.000000826574
 64      -0.000004021760
 65       0.000000289162
 66       0.000215799470
 67      -0.001777173437
 68      -0.000007185871
 69      -0.000026381881
 70       0.000003807156
 71      -0.000017175799
 72       0.000247896468
 73      -0.000024232249
 74      -0.000928465545
 75       0.002049521734
 76      -0.000094812160
 77      -0.000005830394
 78       0.000000017655
 79      -0.000002561535
 80      -0.000011427216
 81       0.000001682422
 82       0.000001126687
 83      -0.000005785693
 84       0.000101139214
 85      -0.000721053576
 86      -0.000367133636
 87      -0.000023876845
 88       0.000001350024
 89       0.000002859453
 90       0.000360690263
 91       0.000079551629
 92      -0.000054165169
 93       0.001920297813
 94      -0.000524782495
 95      -0.000193942309
 96       0.000012193960
 97       0.000001923308
 98       0.000004555771
 99       0.000012584457
100      -0.000007952175
101      -0.000000080095
102       0.000000466913
103      -0.000005222173
104       0.000029207910
105      -0.000474208661
106      -0.000000111506
107       0.000004081170
108      -0.000000324810
109       0.000014987571
110      -0.000016485990
111      -0.000000588255
112       0.000710899110
113       0.000152547668
114      -0.000105437751
115       0.000001904748
116       0.000000968346
117       0.000000150300
118      -0.000003010774
119      -0.000000594124
120       0.000002106200
121       0.000019084122
122       0.000020795312
123      -0.000010507217
124      -0.000166183783
125      -0.000000534238
126       0.000002645881
127      -0.000027543963
128      -0.000031387181
129      -0.001016848961
130      -0.000003164455
131       0.000003152531
132       0.000000111660
133       0.000048804873
134      -0.000074446225
135       0.000001398484
136       0.000785782047
137      -0.000308539594
138      -0.000067939546
139      -0.000004404251
140      -0.000002260631
141      -0.000001464115
142       0.000003284174
143       0.000007914097
144      -0.000000921285
145       0.000004421134
146      -0.000003313411
147      -0.000136408877
148       0.003281695509
149       0.000007355941
150       0.000004787412
151      -0.000001490383
152       0.000024719915
153      -0.000004590232
154      -0.000002434576
155      -0.001483194276
156      -0.000446348844
157       0.000235284865
158       0.000008617713
159       0.000003679063
160       0.000001864284
161      -0.000007059814
162      -0.000007568438
163      -0.000000249990
164       0.000001296526
165      -0.000026576589
166       0.000249571093
167      -0.000858322220
168      -0.000029185760
169      -0.000005206751
170       0.000004409534
171       0.000135385189
172       0.000094185379
173      -0.000027635686
174      -0.002543932022
175      -0.000533573254
176       0.000382650870
177      -0.000002232973
178      -0.000002168120
179       0.000002263687
180       0.000017731110
181      -0.000006167047
182      -0.000003721003
183       0.000017856983
184      -0.000001178897
185      -0.000854055685
186       0.004824335265
187       0.000026774475
188       0.000103259731
189      -0.000014321816
190       0.000160480079
191      -0.000337260201
192       0.000016077603
193      -0.009732276904
194      -0.001789980547
195       0.001407259951
196       0.000009159820
197       0.000006907115
198       0.000004998991
199      -0.000010069621
200      -0.000032451927
201      -0.000007298630
202       0.000037103917
203      -0.000414607999
204       0.000952299309
205      -0.018492196155
206      -0.000032671272
207       0.000062715076
208      -0.000002256044
209       0.000405833050
210      -0.000021811973
211      -0.000050004014
212      -0.006280172077
213       0.003179675876
214       0.000452297166
215      -0.000083786838
216      -0.000009370637
217      -0.000012498641
218      -0.000032873401
219      -0.000050167346
220      -0.000028002218
221       0.000146919771
222      -0.000367437108
223       0.001304940753
224       0.008877991783
225      -0.000185900699
226       0.000223597214
227       0.000000149263
228       0.000414333202
229       0.000387483774
230      -0.000093350074
231       0.005434389195
232      -0.000986858562
233      -0.000588684465
234       0.000268719780
235       0.000006408072
236       0.000029287505
237       0.000172470377
238       0.000299871251
239       0.000007157474
240      -0.000003182327
241       0.000128669372
242      -0.000808968666
243       0.002488975695
244      -0.000080170993
245       0.000015649732
246       0.000008719249
247       0.000257418851
248       0.000012053364
249      -0.000034678384
250       0.000415844243
251      -0.000731637636
252       0.000025435224
253      -0.000053481244
254      -0.000013994487
255      -0.000004520887
256       0.000030077876
257      -0.000018967795
258      -0.000226873523
259       0.000007252230
260       0.000061128166
261       0.000128507328
262      -0.000685671955
263      -0.435522487407
264      -0.639188538604
265      -0.034490532197
266       0.023207379990
267      -0.017579950258
268       0.001642638607
269      -0.000189556120
270      -0.000190608523
271      -0.001950226527
272       0.000640006122
273       0.000182918215
274       0.002993316450
275      -0.002563856845
276      -0.000114494519
277      -0.000185628334
278      -0.000030522693
279      -0.000040089153
280      -0.000074773572
281      -0.000019338249
282       0.000538493224
283       0.000047386416
284       0.000064257926
285       0.000208328542
286       0.000439939598
287       0.000040944579
288      -0.000684499236
289      -0.000030787503
290      -0.000005257906
291       0.000004481040
292      -0.000046160269
293       0.000176002704
294       0.000006213758
295      -0.000011767112
296       0.000000279994
297       0.000004249311
298      -0.000127478978
299       0.000004319214
300       0.000005916376
301      -0.000001184356
302      -0.000613607238
303       0.001695745975
304      -0.000134003809
305      -0.000197564927
306       0.000037772840
307      -0.000166181010
308       0.001218520830
309       0.000000865502
310       0.000015185654
311      -0.000001687095
312      -0.000007059146
313       0.000390219955
314       0.000015500951
315      -0.000013217489
316      -0.000000464140
317      -0.000012269840
318       0.000106644666
319      -0.000000933797
320       0.000009308184
321      -0.000000822484
322       0.000003405842
323      -0.000169807592
324       0.000011311601
325       0.000014062352
326      -0.000002924090
 Sym=     1a
 Ene= -1.89292890697238E+01
 Spin= Alpha
 Occup= 2.000000
  1       0.000000791113
  2      -0.000004745890
  3       0.000056687152
  4      -0.000245605306
  5       0.000623782777
  6      -0.000003756566
  7      -0.000000395863
  8       0.000000524627
  9       0.000021917354
 10       0.000012023911
 11      -0.000004064503
 12      -0.000507258350
 13      -0.000054885401
 14       0.000070932366
 15       0.000007619015
 16       0.000001730656
 17       0.000001923499
 18       0.000002119051
 19      -0.000002507293
 20      -0.000050348511
 21      -0.000025790504
 22      -0.000023378210
 23       0.000011171491
 24       0.000118719284
 25       0.000000775794
 26      -0.000003714503
 27       0.000002090222
 28      -0.000038256570
 29       0.000230695893
 30      -0.000011165620
 31      -0.000000444259
 32       0.000001521380
 33       0.000028260448
 34      -0.000111134083
 35       0.000007783729
 36      -0.000856220233
 37      -0.000636304130
 38       0.000174406533
 39      -0.000010215169
 40      -0.000001034831
 41      -0.000003331744
 42      -0.000011815520
 43       0.000001929357
 44      -0.000000774237
 45       0.000003929301
 46      -0.000078681439
 47       0.000520431032
 48       0.002222081113
 49      -0.000022724258
 50       0.000023149271
 51       0.000000470743
 52       0.000153180164
 53      -0.000252044931
 54       0.000006695140
 55       0.001969477646
 56      -0.000673887559
 57      -0.000176541140
 58      -0.000013972552
 59      -0.000006331763
 60      -0.000003248291
 61       0.000012637760
 62       0.000013968973
 63       0.000000415224
 64      -0.000002259144
 65       0.000061700933
 66      -0.000310634891
 67      -0.003452281635
 68      -0.000016222606
 69      -0.000010381493
 70       0.000003241942
 71       0.000231442189
 72       0.000065582280
 73      -0.000036797601
 74       0.000747676003
 75      -0.001960968308
 76       0.000108106743
 77       0.000010474378
 78       0.000007134084
 79       0.000002842536
 80      -0.000018359496
 81      -0.000021646819
 82      -0.000000668548
 83       0.000003310654
 84      -0.000032885676
 85       0.000259349919
 86       0.003422377417
 87       0.000006571831
 88       0.000006732813
 89      -0.000001597665
 90      -0.000060026110
 91       0.000003813872
 92       0.000007547975
 93      -0.000533683797
 94      -0.000986480420
 95       0.000169835859
 96       0.000001869134
 97       0.000000006245
 98       0.000001066048
 99       0.000004595679
100      -0.000002108602
101      -0.000000034249
102       0.000000206938
103      -0.000008053816
104       0.000037100079
105       0.000177036213
106       0.000000735551
107       0.000005756366
108      -0.000000648054
109      -0.000016242362
110      -0.000033585313
111       0.000005375502
112       0.000326740638
113       0.000043749587
114      -0.000045713832
115      -0.000001683161
116      -0.000001031448
117      -0.000000470866
118       0.000002541510
119       0.000003380010
120      -0.000005547159
121       0.000015043369
122       0.000008216761
123      -0.000041480689
124      -0.000104554573
125      -0.000000080843
126       0.000000402634
127       0.000000798581
128      -0.000126121769
129      -0.000659419801
130      -0.000001232019
131      -0.000000980303
132       0.000000280483
133       0.000045872285
134      -0.000021909795
135      -0.000003661103
136       0.000319344535
137      -0.000049614046
138      -0.000035429879
139      -0.000001561282
140      -0.000000757674
141      -0.000000799656
142      -0.000000131874
143       0.000003970015
144       0.000000035352
145      -0.000000214360
146       0.000020169871
147      -0.000154362991
148       0.001616823952
149       0.000006508360
150      -0.000000632860
151      -0.000000795963
152      -0.000004822795
153       0.000029971063
154      -0.000002368027
155      -0.000665790957
156       0.000069056020
157       0.000077475222
158       0.000003601249
159       0.000001760990
160       0.000000527608
161      -0.000004980860
162      -0.000002819042
163       0.000000331051
164      -0.000001664387
165       0.000029161240
166      -0.000124719488
167      -0.002120100825
168      -0.000016218661
169      -0.000005652401
170       0.000002732340
171       0.000128841193
172       0.000019688358
173      -0.000018787151
174      -0.000358059556
175      -0.000519228316
176       0.000100744557
177       0.000004941757
178      -0.000000787303
179       0.000001455312
180       0.000010814212
181       0.000004649845
182      -0.000000231000
183       0.000001509187
184      -0.000080032974
185       0.000395715426
186       0.004683832726
187       0.000026336138
188       0.000031350423
189      -0.000006673193
190      -0.000574909490
191      -0.000205457802
192       0.000094207162
193      -0.004498705737
194      -0.001087165077
195       0.000679077657
196      -0.000044158747
197      -0.000022573600
198      -0.000005354257
199       0.000070341761
200       0.000036003539
201      -0.000004396323
202       0.000022680078
203      -0.000153714199
204      -0.000521575540
205      -0.011423988338
206       0.000150543708
207      -0.000016669428
208      -0.000017262852
209      -0.000913610963
210       0.000422890053
211       0.000070039762
212       0.000013294578
213       0.001598384082
214      -0.000176526791
215      -0.000011893128
216      -0.000008953394
217      -0.000001423592
218       0.000029490050
219       0.000017804545
220      -0.000020430198
221       0.000114383707
222      -0.001089845103
223       0.004093964471
224       0.009361470952
225       0.000426882661