22
        Energy:      55.8785503
N         -0.84481        1.19112       -0.35094
C         -1.91375        0.39744       -0.10883
C         -1.48140       -0.90815        0.11809
C         -0.10838       -0.84186       -0.00254
N          0.23250        0.42688       -0.28258
C          1.51567        0.83013       -0.46347
C          2.53532       -0.12654       -0.35216
C          2.20319       -1.46302       -0.05928
C          0.86221       -1.83819        0.12052
C         -2.29268       -2.10865        0.42128
C         -3.63194       -2.07368        0.51915
C         -4.42735       -3.28146        0.82255
O         -5.64325       -3.19438        0.90041
O         -3.82576       -4.47595        1.01387
H         -4.16751       -1.14103        0.37490
H         -4.33698       -5.27315        1.21303
H         -1.77180       -3.04950        0.56835
H         -2.93409        0.75458       -0.10035
H          1.74689        1.86373       -0.68797
H          3.56949        0.16071       -0.49041
H          2.98582       -2.20542        0.02778
H          0.60135       -2.86359        0.34570
