22
	Energy:      57.9076133
N         -1.05778        1.31273        0.00977
N         -2.05174        0.45721        0.22579
C         -1.53198       -0.79447        0.29002
C         -0.16649       -0.70848        0.10686
C          0.09148        0.62208       -0.06482
C          1.38040        1.10494       -0.27960
C          2.42907        0.16645       -0.31551
C          2.16458       -1.21138       -0.13807
C          0.84887       -1.66457        0.07704
C         -2.31491       -2.02489        0.51822
C         -3.64649       -1.99583        0.68507
C         -4.43572       -3.22356        0.91379
O         -5.64560       -3.13996        1.05942
O         -3.83481       -4.43257        0.96320
H         -4.17620       -1.04735        0.65373
H         -1.17493        2.34605       -0.08305
H          1.56969        2.16201       -0.41399
H          3.44465        0.50210       -0.48007
H          2.97931       -1.92307       -0.16778
H          0.63960       -2.71724        0.21352
H         -4.34187       -5.24323        1.11243
H         -1.78581       -2.97254        0.54955
