
                                 *****************
                                 * O   R   C   A *
                                 *****************

                                            #,                                       
                                            ###                                      
                                            ####                                     
                                            #####                                    
                                            ######                                   
                                           ########,                                 
                                     ,,################,,,,,                         
                               ,,#################################,,                 
                          ,,##########################################,,             
                       ,#########################################, ''#####,          
                    ,#############################################,,   '####,        
                  ,##################################################,,,,####,       
                ,###########''''           ''''###############################       
              ,#####''   ,,,,##########,,,,          '''####'''          '####       
            ,##' ,,,,###########################,,,                        '##       
           ' ,,###''''                  '''############,,,                           
         ,,##''                                '''############,,,,        ,,,,,,###''
      ,#''                                            '''#######################'''  
     '                                                          ''''####''''         
             ,#######,   #######,   ,#######,      ##                                
            ,#'     '#,  ##    ##  ,#'     '#,    #''#        ,####,    ,#,          
            ##       ##  ##   ,#'  ##            #'  '#       #'       ,# #          
            ##       ##  #######   ##           ,######,      #####,      #          
            '#,     ,#'  ##    ##  '#,     ,#' ,#      #,     #,   #      #          
             '#######'   ##     ##  '#######'  #'      '#     '####' #    #          



                #########################################################
                #                        -***-                          #
                #          Department of theory and spectroscopy        #
                #                                                       #
                #                      Frank Neese                      #
                #                                                       #
                #     Directorship, Architecture, Infrastructure        #
                #                    SHARK, DRIVERS                     #
                #        Core code/Algorithms in most modules           #
                #                                                       #
                #        Max Planck Institute fuer Kohlenforschung      #
                #                Kaiser Wilhelm Platz 1                 #
                #                 D-45470 Muelheim/Ruhr                 #
                #                      Germany                          #
                #                                                       #
                #                  All rights reserved                  #
                #                        -***-                          #
                #########################################################


                         Program Version 6.1.1  -  RELEASE   -
                                (GIT: $487d211c$)
                          ($2025-11-21 10:33:24 +0100$)


 With contributions from (in alphabetic order):
[Max-Planck-Institut fuer Kohlenforschung]                               
  Daniel Aravena         : Magnetic Suceptibility                        
  Michael Atanasov       : Ab Initio Ligand Field Theory (pilot matlab implementation)
  Alexander A. Auer      : GIAO ZORA, VPT2 properties, NMR spectrum      
  Ute Becker             : All parallelization in ORCA, NUMFREQ, NUMCALC 
  Giovanni Bistoni       : ED, misc. LED, open-shell LED, HFLD           
  Dmytro Bykov           : pre 5.0 version of the SCF Hessian            
  Marcos Casanova-Páez   : Triplet and SCS-CIS(D). UHF-(DLPNO)-IP/EA/STEOM-CCSD. UHF-CVS-IP/STEOM-CCSD   
  Vijay G. Chilkuri      : MRCI spin determinant printing, contributions to CSF-ICE 
  Pauline Colinet        : FMM embedding                                 
  Dipayan Datta          : RHF DLPNO-CCSD density                        
  Achintya Kumar Dutta   : EOM-CC, STEOM-CC                              
  Nicolas Foglia         : Exact transition moments, OPA infrastructure, MCD improvements    
  Dmitry Ganyushin       : Spin-Orbit,Spin-Spin,Magnetic field MRCI      
  Miquel Garcia-Rates    : C-PCM and meta-GGA Hessian, CCSD/C-PCM, Gaussian charge scheme 
  Tiago L. C. Gouveia    : GS-ROHF, GS-ROCIS                             
  Yang Guo               : DLPNO-NEVPT2, F12-NEVPT2, CIM, IAO-localization        
  Andreas Hansen         : Spin unrestricted coupled pair/coupled cluster methods 
  Ingolf Harden          : AUTO-CI MPn and infrastructure                
  Benjamin Helmich-Paris : MC-RPA, TRAH-(SCF,CASSCF), AVAS, COSX integrals, SCF dyn. polar., MC-PDFT, srDFT 
  Lee Huntington         : MR-EOM, pCC                                   
  Robert Izsak           : Overlap fitted RIJCOSX, COSX-SCS-MP3, EOM     
  Riya Kayal             : Wick's Theorem for AUTO-CI, AUTO-CI UHF-CCSDT 
  Emily Kempfer          : AUTO-CI RHF CISDT and CCSDT, approximate NEVPT4
  Christian Kollmar      : KDIIS, OOCD, Brueckner-CCSD(T), CCSD density, CASPT2, CASPT2-K, improved NEVPT2 
  Axel Koslowski         : Symmetry handling                             
  Simone Kossmann        : meta-GGA functionals, TD-DFT gradient, OOMP2, (MP2 Hessian; deprecated post 5.0) 
  Lucas Lang             : DCDCAS, Hyperfine gauge corrections, ICE-SOC+SSC
  Marvin Lechner         : AUTO-CI (C++ implementation), FIC-MRCC        
  Spencer Leger          : CASSCF response                               
  Dagmar Lenk            : GEPOL surface, SMD, ORCA-2-JSON               
  Dimitrios Liakos       : Extrapolation schemes; Compound Job, Property file
  Dimitrios Manganas     : Further ROCIS development; embedding schemes. LFT, Crystal Embedding 
  Dimitrios Pantazis     : SARC Basis sets                               
  Anastasios Papadopoulos: AUTO-CI, single reference methods and gradients 
  Taras Petrenko         : pre 6.0 DFT Hessian and TD-DFT gradient,  ECA, NRVS 
  Petra Pikulova         : Analytic Raman intensities                    
  Peter Pinski           : DLPNO-MP2, DLPNO-MP2 Gradient                 
  Shashank Vittal Rao    : ES-AILFT, MagRelax                            
  Christoph Reimann      : Effective Core Potentials                     
  Marius Retegan         : Local ZFS, SOC                                
  Christoph Riplinger    : Optimizer, TS searches, QM/MM, DLPNO-CCSD(T), (RO)-DLPNO pert. Triples 
  Michael Roemelt        : Original ROCIS implementation, recursive CI coupling coefficients
  Masaaki Saitow         : Open-shell DLPNO-CCSD energy and density      
  Barbara Sandhoefer     : DKH picture change effects                    
  Yorick L. A. Schmerwitz: GMF and freeze-and-release deltaSCF, NEB S-IDPP initial path                    
  Kantharuban Sivalingam : CASSCF convergence/infrastructure, NEVPT2, NEVPT3, NEVPT4(SD), FIC-MRCI and CEPA variants
  Bernardo de Souza      : ESD, SOC TD-DFT                               
  Georgi L. Stoychev     : AutoAux, RI-MP2 NMR, DLPNO-MP2 response, X2C  
  Van Anh Tran           : RI-MP2 g-tensors                              
  Willem Van den Heuvel  : Paramagnetic NMR                              
  Zikuan Wang            : NOTCH, Electric field optimization            
  Frank Wennmohs         : Technical directorship and infrastructure     
  Hang Xu                : AUTO-CI-Response properties                   
                                                                         
[FACCTs GmbH]                                                            
  Markus Bursch, Nicolas Foglia, Miquel Garcia-Rates, Ingolf Harden, Hagen Neugebauer, Anastasios Papadopoulos, 
  Christoph Riplinger, Bernardo de Souza, Georgi L. Stoychev                                                    
                                                                 
  APM, various basis sets, CI-OPT, improved COSX, DLPNO-Multilevel,           
  DOCKER, DRACO, updates on ESD, Fragmentator, GOAT, IRC, LR-CPCM, L-BFGS, MBIS, meta-GGA TD-DFT gradient, ML-optimized integration grids, 
  MM, NACMEs, nearIR, NEB, NEB-TS, NL-DFT gradient (VV10), 2- and 3-layer-ONIOM, interface openCOSMO-RS, QMMM,   
  Crystal-QMMM, RESP, rigid body optimization, SF, symmetry and pop. for TD-DFT, various functionals, SOLVATOR                                   
                                                                         
[Other institutions]                                                     
  V. Asgeirsson          : NEB                                           
  Christoph Bannwarth    : sTDA-DFT, sTD-DFT, PBEh-3c, B97-3c, D3        
  Giovanni Bistoni       : ETS/NOCV, ADLD/ADEX, COVALED                  
  Martin Brehm           : Molecular dynamics                            
  Ronald Cardenas        : ETS/NOCV                                      
  Martina Colucci        : COVALED                                       
  Sebastian Ehlert       : rSCAN, r2SCAN, r2SCAN-3c, D4, dhf basis sets  
  Marvin Friede          : D4 for Fr, Ra, Ac-Lr                          
  Lars Goerigk           : TD-DFT with DH, B97 family of functionals     
  Stefan Grimme          : VdW corrections, initial TS optimization, DFT functionals, gCP, sTDA/sTD-DF 
  Waldemar Hujo          : DFT-NL                                        
  H. Jonsson             : NEB                                           
  Holger Kruse           : gCP                                           
  Marcel Mueller         : wB97X-3c, vDZP basis set                      
  Hagen Neugebauer       : wr2SCAN, Native XTB                           
  Gianluca Regni         : ADLD/ADEX                                     
  Tobias Risthaus        : pre 6.0 range-separated hybrid DFT and stability analysis
  Lukas Wittmann         : regularized MP2, r2SCAN double-hybrids, wr2SCAN        
                                                                         
We gratefully acknowledge several colleagues who have allowed us to      
interface, adapt or use parts of their codes:                            
  Ed Valeev, F. Pavosevic, A. Kumar             : LibInt (2-el integral package), F12 methods 
  Garnet Chan, S. Sharma, J. Yang, R. Olivares  : DMRG                   
  Ulf Ekstrom                                   : XCFun DFT Library      
  Mihaly Kallay                                 : mrcc  (arbitrary order and MRCC methods)
  Frank Weinhold                                : gennbo (NPA and NBO analysis)           
  Simon Mueller                                 : openCOSMO-RS                            
  Christopher J. Cramer and Donald G. Truhlar   : smd solvation model                     
  S Lehtola, MJT Oliveira, MAL Marques          : LibXC Library                           
  Liviu Ungur et al                             : ANISO software                          


 Your calculation uses the libint2 library for the computation of 2-el integrals
 For citations please refer to: http://libint.valeyev.net

 Your ORCA version has been built with support for libXC version: 7.0.0
 For citations please refer to: https://libxc.gitlab.io

 This ORCA versions uses:
   CBLAS   interface :  Fast vector & matrix operations
   LAPACKE interface :  Fast linear algebra routines
   SCALAPACK package :  Parallel linear algebra routines
   Shared memory     :  Shared parallel matrices
   BLAS/LAPACK       :  OpenBLAS 0.3.29  USE64BITINT DYNAMIC_ARCH NO_AFFINITY Cooperlake SINGLE_THREADED
        Core in use  :  Cooperlake
   Copyright (c) 2011-2014, The OpenBLAS Project


  ***********************************
  * Starting time: Fri Jan 16 14:11:09 2026
  * Host name:     staff-205-230.eduroam.unibe.ch
  * Process ID:    3310155
  * Working dir.:  /home/mestevez/Projects/LsPAL3/SP/Bond/1e
  ***********************************



***************************************
The coordinates will be read from file: 1e_opt.xyz
***************************************


Your calculation utilizes the geometrical counterpoise correction gCP
Please cite in your paper:
H.Kruse, S. Grimme J.Chem.Phys., 136, (2012), 154101 
   

Your calculation utilizes the atom-pairwise dispersion correction
based on EEQ partial charges (D4)


================================================================================

----- Orbital basis set information -----
Your calculation utilizes the basis: def2-mTZVPP
   Stefan Grimme, Andreas Hansen, Sebastian Ehlert, and Jan-Michael Mewes 
   J. Chem. Phys. 154, 064103 (2021). DOI: 10.1063/5.0040021

----- AuxJ basis set information -----
Your calculation utilizes the basis: def2-mTZVPP/J
   Stefan Grimme, Andreas Hansen, Sebastian Ehlert, and Jan-Michael Mewes 
   J. Chem. Phys. 154, 000000 (2021). DOI: 10.1063/5.0040021

================================================================================
                                        WARNINGS
                       Please study these warnings very carefully!
================================================================================

WARNING: Old DensityContainer found on disk!
         Will remove this file - 
         If you want to keep old densities, please start your calculation with a different basename. 



WARNING: SCAN, rSCAN, or r2SCAN functional requested.
  ===> : libXC variant has now been activated.



================================================================================
                                       INPUT FILE
================================================================================
NAME = LUMO.in
|  1> ! r2SCAN-3c TightSCF
|  2> 
|  3> %pal
|  4>   nprocs 16
|  5> end
|  6> 
|  7> %scf
|  8>   PrintLevel 2
|  9> end
| 10> 
| 11> * xyzfile 0 1 1e_opt.xyz
| 12> 
| 13> 
| 14>                          ****END OF INPUT****
================================================================================

                       ****************************
                       * Single Point Calculation *
                       ****************************

---------------------------------
CARTESIAN COORDINATES (ANGSTROEM)
---------------------------------
  N     -0.841206    1.203119   -0.354951
  C     -1.879482    0.405378   -0.114711
  C     -1.512526   -0.938000    0.125186
  C     -0.107884   -0.931125    0.014711
  N      0.235802    0.385085   -0.275092
  C      1.520035    0.797387   -0.457255
  C      2.525394   -0.120118   -0.351925
  C      2.226783   -1.472807   -0.058231
  C      0.926650   -1.875941    0.123430
  C     -2.328194   -2.078099    0.416660
  C     -3.673604   -2.084112    0.525753
  C     -4.458344   -3.274416    0.825313
  O     -5.670285   -3.289494    0.927135
  O     -3.709277   -4.408361    0.987666
  H     -4.268717   -1.185563    0.395813
  H     -4.345768   -5.113163    1.179072
  H     -1.806705   -3.022174    0.562313
  H     -2.875502    0.829860   -0.122362
  H      1.649977    1.850264   -0.677626
  H      3.549327    0.203626   -0.496108
  H      3.034183   -2.192863    0.023110
  H      0.682084   -2.908465    0.349201

----------------------------
CARTESIAN COORDINATES (A.U.)
----------------------------
  NO LB      ZA    FRAG     MASS         X           Y           Z
   0 N     7.0000    0    14.007   -1.589650    2.273566   -0.670761
   1 C     6.0000    0    12.011   -3.551707    0.766053   -0.216773
   2 C     6.0000    0    12.011   -2.858259   -1.772562    0.236566
   3 C     6.0000    0    12.011   -0.203871   -1.759570    0.027799
   4 N     7.0000    0    14.007    0.445602    0.727705   -0.519848
   5 C     6.0000    0    12.011    2.872450    1.506842   -0.864087
   6 C     6.0000    0    12.011    4.772304   -0.226990   -0.665041
   7 C     6.0000    0    12.011    4.208010   -2.783202   -0.110040
   8 C     6.0000    0    12.011    1.751114   -3.545014    0.233249
   9 C     6.0000    0    12.011   -4.399650   -3.927038    0.787373
  10 C     6.0000    0    12.011   -6.942106   -3.938401    0.993529
  11 C     6.0000    0    12.011   -8.425048   -6.187749    1.559615
  12 O     8.0000    0    15.999  -10.715285   -6.216243    1.752030
  13 O     8.0000    0    15.999   -7.009517   -8.330595    1.866418
  14 H     1.0000    0     1.008   -8.066707   -2.240389    0.747979
  15 H     1.0000    0     1.008   -8.212311   -9.662477    2.228123
  16 H     1.0000    0     1.008   -3.414178   -5.711080    1.062617
  17 H     1.0000    0     1.008   -5.433912    1.568208   -0.231231
  18 H     1.0000    0     1.008    3.118005    3.496493   -1.280527
  19 H     1.0000    0     1.008    6.707256    0.384797   -0.937508
  20 H     1.0000    0     1.008    5.733775   -4.143911    0.043671
  21 H     1.0000    0     1.008    1.288951   -5.496202    0.659893

--------------------------------
INTERNAL COORDINATES (ANGSTROEM)
--------------------------------
 N      0   0   0     0.000000000000     0.00000000     0.00000000
 C      1   0   0     1.331211266487     0.00000000     0.00000000
 C      2   1   0     1.413106458333   113.44005764     0.00000000
 C      3   2   1     1.408996492271   103.94135945     0.00000000
 N      1   2   3     1.354808291130   104.33261421     0.00000000
 C      5   1   2     1.361040083948   124.00684020   180.00592553
 C      6   5   1     1.365158049287   118.74808521   179.99893353
 C      7   6   5     1.416048262170   120.18005458     0.00000000
 C      8   7   6     1.373267612415   120.49782771     0.00000000
 C      3   2   1     1.431816936925   130.06043901   179.99256358
 C     10   3   2     1.349838715544   126.00133178   359.84655273
 C     11  10   3     1.456837038448   123.85894497   180.02831113
 O     12  11  10     1.216304392217   124.33773582   179.90903499
 O     12  11  10     1.368682556784   113.98552856   359.86576338
 H     11  10   3     1.085557316850   122.21176162   359.96967084
 H     14  12  11     0.968763503249   105.46272175   180.00560530
 H     10   3   2     1.088320809002   116.42323579   179.86291112
 H      2   1   3     1.082727955893   118.76859175   180.02077071
 H      6   5   1     1.083512528662   115.76916585     0.00000000
 H      7   6   5     1.083529912738   119.00318758   180.00357595
 H      8   7   6     1.084892884181   119.51333672   180.00634150
 H      9   8   7     1.084845843173   121.35655341   180.01797949

---------------------------
INTERNAL COORDINATES (A.U.)
---------------------------
 N      0   0   0     0.000000000000     0.00000000     0.00000000
 C      1   0   0     2.515624720052     0.00000000     0.00000000
 C      2   1   0     2.670384204325   113.44005764     0.00000000
 C      3   2   1     2.662617494047   103.94135945     0.00000000
 N      1   2   3     2.560216634202   104.33261421     0.00000000
 C      5   1   2     2.571993015951   124.00684020   180.00592553
 C      6   5   1     2.579774842671   118.74808521   179.99893353
 C      7   6   5     2.675943407917   120.18005458     0.00000000
 C      8   7   6     2.595099696049   120.49782771     0.00000000
 C      3   2   1     2.705741884698   130.06043901   179.99256358
 C     10   3   2     2.550825497341   126.00133178   359.84655273
 C     11  10   3     2.753023024420   123.85894497   180.02831113
 O     12  11  10     2.298482196776   124.33773582   179.90903499
 O     12  11  10     2.586435196597   113.98552856   359.86576338
 H     11  10   3     2.051406031521   122.21176162   359.96967084
 H     14  12  11     1.830697709678   105.46272175   180.00560530
 H     10   3   2     2.056628274861   116.42323579   179.86291112
 H      2   1   3     2.046059314178   118.76859175   180.02077071
 H      6   5   1     2.047541941843   115.76916585     0.00000000
 H      7   6   5     2.047574792986   119.00318758   180.00357595
 H      8   7   6     2.050150435742   119.51333672   180.00634150
 H      9   8   7     2.050061541120   121.35655341   180.01797949

---------------------
BASIS SET INFORMATION
---------------------
There are 4 groups of distinct atoms

 Group   1 Type N   : 11s6p2d contracted to 5s3p2d pattern {62111/411/11}
 Group   2 Type C   : 11s6p1d contracted to 5s3p1d pattern {62111/411/1}
 Group   3 Type O   : 11s6p2d contracted to 5s3p2d pattern {62111/411/11}
 Group   4 Type H   : 4s1p contracted to 2s1p pattern {31/1}

Atom   0N    basis set group =>   1
Atom   1C    basis set group =>   2
Atom   2C    basis set group =>   2
Atom   3C    basis set group =>   2
Atom   4N    basis set group =>   1
Atom   5C    basis set group =>   2
Atom   6C    basis set group =>   2
Atom   7C    basis set group =>   2
Atom   8C    basis set group =>   2
Atom   9C    basis set group =>   2
Atom  10C    basis set group =>   2
Atom  11C    basis set group =>   2
Atom  12O    basis set group =>   3
Atom  13O    basis set group =>   3
Atom  14H    basis set group =>   4
Atom  15H    basis set group =>   4
Atom  16H    basis set group =>   4
Atom  17H    basis set group =>   4
Atom  18H    basis set group =>   4
Atom  19H    basis set group =>   4
Atom  20H    basis set group =>   4
Atom  21H    basis set group =>   4
---------------------------------
AUXILIARY/J BASIS SET INFORMATION
---------------------------------
There are 4 groups of distinct atoms

 Group   1 Type N   : 8s3p3d contracted to 6s3p3d pattern {311111/111/111}
 Group   2 Type C   : 8s3p3d contracted to 6s3p3d pattern {311111/111/111}
 Group   3 Type O   : 8s3p3d contracted to 6s3p3d pattern {311111/111/111}
 Group   4 Type H   : 5s2p1d contracted to 3s1p1d pattern {311/2/1}

Atom   0N    basis set group =>   1
Atom   1C    basis set group =>   2
Atom   2C    basis set group =>   2
Atom   3C    basis set group =>   2
Atom   4N    basis set group =>   1
Atom   5C    basis set group =>   2
Atom   6C    basis set group =>   2
Atom   7C    basis set group =>   2
Atom   8C    basis set group =>   2
Atom   9C    basis set group =>   2
Atom  10C    basis set group =>   2
Atom  11C    basis set group =>   2
Atom  12O    basis set group =>   3
Atom  13O    basis set group =>   3
Atom  14H    basis set group =>   4
Atom  15H    basis set group =>   4
Atom  16H    basis set group =>   4
Atom  17H    basis set group =>   4
Atom  18H    basis set group =>   4
Atom  19H    basis set group =>   4
Atom  20H    basis set group =>   4
Atom  21H    basis set group =>   4

Checking for AutoStart:
The File: LUMO.gbw exists
Trying to determine its content:
     ... Fine, the file contains calculation information
     ... Fine, the calculation information was read
     ... Fine, the file contains a basis set
     ... Fine, the basis set was read
     ... Fine, the file contains a geometry
     ... Fine, the geometry was read
     ... Fine, the file contains a set of orbitals
     ... Fine, the orbitals can be read
     => possible old guess file was deleted
     => GBW file was renamed to GES file
     => GES file is set as startup file
     => Guess is set to MORead
     ... now leaving AutoStart



           ************************************************************
           *        Program running with 16 parallel MPI-processes    *
           *              working on a common directory               *
           ************************************************************
------------------------------------------------------------------------------
                             ORCA STARTUP CALCULATIONS
                           -- RI-GTO INTEGRALS CHOSEN --
------------------------------------------------------------------------------
------------------------------------------------------------------------------
                   ___                                                        
                  /   \      - P O W E R E D   B Y -                         
                 /     \                                                     
                 |  |  |   _    _      __       _____    __    __             
                 |  |  |  | |  | |    /  \     |  _  \  |  |  /  |          
                  \  \/   | |  | |   /    \    | | | |  |  | /  /          
                 / \  \   | |__| |  /  /\  \   | |_| |  |  |/  /          
                |  |  |   |  __  | /  /__\  \  |    /   |      \           
                |  |  |   | |  | | |   __   |  |    \   |  |\   \          
                \     /   | |  | | |  |  |  |  | |\  \  |  | \   \       
                 \___/    |_|  |_| |__|  |__|  |_| \__\ |__|  \__/        
                                                                              
                      - O R C A' S   B I G   F R I E N D -                    
                                      &                                       
                       - I N T E G R A L  F E E D E R -                       
                                                                              
 v1 FN, 2020, v2 2021, v3 2022-2024                                           
------------------------------------------------------------------------------


----------------------
SHARK INTEGRAL PACKAGE
----------------------

Number of atoms                             ...     22
Number of basis functions                   ...    326
Number of shells                            ...    154
Maximum angular momentum                    ...      2
Integral batch strategy                     ... SHARK/LIBINT Hybrid
RI-J (if used) integral strategy            ... SPLIT-RIJ (Revised 2003 algorithm where possible)
Printlevel                                  ...      1
Contraction scheme used                     ... SEGMENTED contraction
Prescreening option                         ... SCHWARTZ
   Thresh                                   ... 2.500e-11
   Tcut                                     ... 2.500e-12
   Tpresel                                  ... 2.500e-12 
Coulomb Range Separation                    ... NOT USED
Exchange Range Separation                   ... NOT USED
Multipole approximations                    ... NOT USED
Finite Nucleus Model                        ... NOT USED
CABS basis                                  ... NOT available
Auxiliary Coulomb fitting basis             ... AVAILABLE
   # of basis functions in Aux-J            ...    508
   # of shells in Aux-J                     ...    208
   Maximum angular momentum in Aux-J        ...      2
Auxiliary J/K fitting basis                 ... NOT available
Auxiliary Correlation fitting basis         ... NOT available
Auxiliary 'external' fitting basis          ... NOT available

Checking pre-screening integrals            ... done (  0.0 sec) Dimension = 154
   => SHARK Basis and OBASIS are compatible. Storing Pre-screening
Shell pair information
Shell pair cut-off parameter TPreSel        ...   2.5e-12
Total number of shell pairs                 ...     11935
Shell pairs after pre-screening             ...      9317
Total number of primitive shell pairs       ...     44288
Primitive shell pairs kept                  ...     23068
          la=0 lb=0:   2762 shell pairs
          la=1 lb=0:   3439 shell pairs
          la=1 lb=1:   1080 shell pairs
          la=2 lb=0:   1164 shell pairs
          la=2 lb=1:    735 shell pairs
          la=2 lb=2:    137 shell pairs

Checking whether 4 symmetric matrices of dimension 326 fit in memory
:Max Core in MB      =   4096.00
 MB in use           =     13.08
 MB left             =   4082.92
 MB needed           =      1.63
 Data fit in memory  = YES
Calculating RI/J V-Matrix + Cholesky decomp.... done (  0.0 sec)
Calculating Nuclear repulsion               ... done (  0.0 sec) ENN=    794.007808665789 Eh

Diagonalization of the overlap matrix:
Smallest eigenvalue                        ... 2.624e-05
Time for diagonalization                   ...    0.005 sec
Threshold for overlap eigenvalues          ... 1.000e-07
Number of eigenvalues below threshold      ... 0
Time for construction of square roots      ...    0.002 sec
Total time needed                          ...    0.014 sec

-------------------
DFT GRID GENERATION
-------------------

General Integration Accuracy     IntAcc      ... 4.388
Radial Grid Type                 RadialGrid  ... OptM3 with GC (2021)
Angular Grid (max. ang.)         AngularGrid ... 4 (Lebedev-302)
Angular grid pruning method      GridPruning ... 4 (adaptive)
Weight generation scheme         WeightScheme... mBecke (2022)
Basis function cutoff            BFCut       ... 1.0000e-11
Integration weight cutoff        WCut        ... 1.0000e-14
Partially contracted basis set               ... off
Rotationally invariant grid construction     ... off
Angular grids for H and He will be reduced by one unit
Diffuse basis detected: some atoms will have their outermost
                        angular grid increased by 1.

Total number of grid points                  ...   110506
Total number of batches                      ...     1736
Average number of points per batch           ...       63
Average number of grid points per atom       ...     5023
Grids setup in   0.3 sec
Initializing property integral containers    ... done (  0.0 sec)

SHARK setup successfully completed in   0.4 seconds

Maximum memory used throughout the entire STARTUP-calculation: 32.6 MB


           ************************************************************
           *        Program running with 16 parallel MPI-processes    *
           *              working on a common directory               *
           ************************************************************
-------------------------------------------------------------------------------
                                 ORCA GUESS
                   Start orbitals & Density for SCF / CASSCF
-------------------------------------------------------------------------------

------------
SCF SETTINGS
------------
Hamiltonian:
 Density Functional     Method          .... DFT(GTOs)
  Functional kind                       .... Exchange
  Functional name                       .... Re-regularized SCAN exchange by Furness et al
  Functional family                     .... MGGA
  Functional refs                              
    [ 0] J. W. Furness, A. D. Kaplan, J. Ning, J. P. Perdew, and J. Sun.,  J. Phys. Chem. Lett. 11, 8208-8215 (2020), doi: 10.1021/acs.jpclett.0c02405
    [ 1] J. W. Furness, A. D. Kaplan, J. Ning, J. P. Perdew, and J. Sun.,  J. Phys. Chem. Lett. 11, 9248-9248 (2020), doi: 10.1021/acs.jpclett.0c03077
  Functional external parameters        .... 6
    Parameter  0 _c1        =  6.670000e-01 : c1 parameter        
    Parameter  1 _c2        =  8.000000e-01 : c2 parameter        
    Parameter  2 _d         =  1.240000e+00 : d parameter         
    Parameter  3 _k1        =  6.500000e-02 : k1 parameter        
    Parameter  4 _eta       =  1.000000e-03 : eta parameter       
    Parameter  5 _dp2       =  3.610000e-01 : dp2 parameter       
  Functional kind                       .... Correlation
  Functional name                       .... Re-regularized SCAN correlation by Furness et al
  Functional family                     .... MGGA
  Functional refs                              
    [ 0] J. W. Furness, A. D. Kaplan, J. Ning, J. P. Perdew, and J. Sun.,  J. Phys. Chem. Lett. 11, 8208-8215 (2020), doi: 10.1021/acs.jpclett.0c02405
    [ 1] J. W. Furness, A. D. Kaplan, J. Ning, J. P. Perdew, and J. Sun.,  J. Phys. Chem. Lett. 11, 9248-9248 (2020), doi: 10.1021/acs.jpclett.0c03077
  Functional external parameters        .... 1
    Parameter  0 _eta       =  1.000000e-03 : Regularization parameter
 Gradients option       PostSCFGGA      .... off
 RI-approximation to the Coulomb term is turned on
   Number of AuxJ basis functions       .... 508


General Settings:
 Integral files         IntName         .... LUMO
 Hartree-Fock type      HFTyp           .... RHF
 Total Charge           Charge          ....    0
 Multiplicity           Mult            ....    1
 Number of Electrons    NEL             ....   98
 Basis Dimension        Dim             ....  326
 Nuclear Repulsion      ENuc            ....    794.0078086658 Eh

Convergence Acceleration:
 AO-DIIS                CNVDIIS         .... on
   Start iteration      DIISMaxIt       ....    12
   Startup error        DIISStart       ....  0.200000
   # of expansion vecs  DIISMaxEq       ....     5
   Bias factor          DIISBfac        ....   1.050
   Max. coefficient     DIISMaxC        ....  10.000
 MO-DIIS                CNVKDIIS        .... off
 Trust-Rad. Augm. Hess. CNVTRAH         .... auto
   Auto Start mean grad. ratio tolernc. ....  1.125000
   Auto Start start iteration           ....     1
   Auto Start num. interpolation iter.  ....    10
   Max. Number of Micro iterations      ....    24
   Max. Number of Macro iterations      .... Maxiter - #DIIS iter
   Number of Davidson start vectors     ....     2
   Converg. threshold    (grad. norm)   ....   1.000e-05
   Grad. Scal. Fac. for Micro threshold ....   0.100
   Minimum threshold for Micro iter.    ....   1.000e-02
   NR start threshold (gradient norm)   ....   1.000e-04
   Initial trust radius                 ....   0.400
   Minimum AH scaling param. (alpha)    ....   1.000
   Maximum AH scaling param. (alpha)    .... 1000.000
   Quad. conv. algorithm                .... NR
   White noise on init. David. guess    .... on
   Maximum white noise                  ....   0.010
   Pseudo random numbers                .... off
   Inactive MOs                         .... canonical
   Orbital update algorithm             .... Taylor
   Preconditioner                       .... Diag
   Full preconditioner red. dimension   ....   250
   COSX micro iterations for RIJONX calc.... off
 SOSCF                 CNVSOSCF           .... on
   Start iteration     SOSCFMaxIt         ....   150
   Startup grad/error  SOSCFStart         ....  0.003300
   Hessian update      SOSCFHessUp        .... L-BFGS
   Autom. constraints  SOSCFAutoConstrain .... off
 Level Shifting         CNVShift        .... on
   Level shift para.    LevelShift      ....    0.2500
   Turn off err/grad.   ShiftErr        ....    0.0010
 Zerner damping         CNVZerner       .... off
 Static damping         CNVDamp         .... on
   Fraction old density DampFac         ....    0.7000
   Max. Damping (<1)    DampMax         ....    0.9800
   Min. Damping (>=0)   DampMin         ....    0.0000
   Turn off err/grad.   DampErr         ....    0.1000

SCF Procedure:
 Maximum # iterations   MaxIter         ....   125
 SCF integral mode      SCFMode         .... Direct
   Integral package                     .... SHARK and LIBINT hybrid scheme
 Reset frequency        DirectResetFreq ....    20
 Integral Threshold     Thresh          ....  2.500e-11 Eh
 Primitive CutOff       TCut            ....  2.500e-12 Eh

Convergence Tolerance:
 Convergence Check Mode ConvCheckMode   .... Total+1el-Energy
 Convergence forced     ConvForced      .... 0
 Energy Change          TolE            ....  1.000e-08 Eh
 1-El. energy change                    ....  1.000e-05 Eh
 Orbital Gradient       TolG            ....  1.000e-05
 Orbital Rotation angle TolX            ....  1.000e-05
 DIIS Error             TolErr          ....  5.000e-07

---------------------
INITIAL GUESS: MOREAD
---------------------
Guess MOs are being read from file: LUMO.ges
Input Geometry matches current geometry (good)
Input basis set matches current basis set (good)
Occupation numbers will be reassigned to an Aufbau configuration
MOs were renormalized
MOs were reorthogonalized (Cholesky)
                      ------------------
                      INITIAL GUESS DONE (   0.0 sec)
                      ------------------
             **** ENERGY FILE WAS UPDATED (LUMO.en.tmp) ****
Finished Guess after   0.1 sec
Maximum memory used throughout the entire GUESS-calculation: 18.0 MB


           ************************************************************
           *        Program running with 16 parallel MPI-processes    *
           *              working on a common directory               *
           ************************************************************

-------------------------------------------------------------------------------------------
                                      ORCA LEAN-SCF
                              memory conserving SCF solver
-------------------------------------------------------------------------------------------

----------------------------------------D-I-I-S--------------------------------------------
Iteration    Energy (Eh)           Delta-E    RMSDP     MaxDP     DIISErr   Damp  Time(sec)
-------------------------------------------------------------------------------------------
               ***  Starting incremental Fock matrix formation  ***
                              *** Initializing SOSCF ***
---------------------------------------S-O-S-C-F--------------------------------------
Iteration    Energy (Eh)           Delta-E    RMSDP     MaxDP     MaxGrad    Time(sec)
--------------------------------------------------------------------------------------
    1    -645.7048716911720021     0.00e+00  1.76e-06  4.46e-05  1.14e-06     0.2
               *** Restarting incremental Fock matrix formation ***
    2    -645.7048716910283019     1.44e-10  3.92e-06  1.03e-04  3.36e-06     0.2
    3    -645.7048716889621574     2.07e-09  3.32e-06  7.32e-05  1.01e-05     0.1
                 **** Energy Check signals convergence ****

               *****************************************************
               *                     SUCCESS                       *
               *           SCF CONVERGED AFTER   3 CYCLES          *
               *****************************************************

             **** ENERGY FILE WAS UPDATED (LUMO.en.tmp) ****

----------------
TOTAL SCF ENERGY
----------------

Total Energy       :       -645.70487168391628 Eh          -17570.52283 eV

Components:
Nuclear Repulsion  :        794.00780866578930 Eh           21606.05090 eV
Electronic Energy  :      -1439.71268034970535 Eh          -39176.57373 eV
One Electron Energy:      -2451.13929845021858 Eh          -66698.89122 eV
Two Electron Energy:       1011.42661810051311 Eh           27522.31749 eV

Virial components:
Potential Energy   :      -1288.72230920987749 Eh          -35067.91685 eV
Kinetic Energy     :        643.01743752596110 Eh           17497.39403 eV
Virial Ratio       :          2.00417941100990

DFT components:
N(Alpha)           :       48.999991725290 electrons
N(Beta)            :       48.999991725290 electrons
N(Total)           :       97.999983450580 electrons
E(X)               :      -84.771653491351 Eh       
E(C)               :       -3.238042008679 Eh       
E(XC)              :      -88.009695500030 Eh       

---------------
SCF CONVERGENCE
---------------

  Last Energy change         ...   -2.0661e-09  Tolerance :   1.0000e-08
  Last MAX-Density change    ...    7.3186e-05  Tolerance :   1.0000e-07
  Last RMS-Density change    ...    3.3215e-06  Tolerance :   5.0000e-09
  Last DIIS Error            ...    1.0340e-05  Tolerance :   5.0000e-07
  Last Orbital Gradient      ...    1.0139e-05  Tolerance :   1.0000e-05
  Last Orbital Rotation      ...    1.1026e-05  Tolerance :   1.0000e-05


----------------
ORBITAL ENERGIES
----------------

  NO   OCC          E(Eh)            E(eV) 
   0   2.0000     -18.989085      -516.7193 
   1   2.0000     -18.927121      -515.0331 
   2   2.0000     -14.283012      -388.6605 
   3   2.0000     -14.198106      -386.3501 
   4   2.0000     -10.152164      -276.2544 
   5   2.0000     -10.108017      -275.0531 
   6   2.0000     -10.103659      -274.9345 
   7   2.0000     -10.078665      -274.2544 
   8   2.0000     -10.074179      -274.1324 
   9   2.0000     -10.073033      -274.1012 
  10   2.0000     -10.069833      -274.0141 
  11   2.0000     -10.065940      -273.9082 
  12   2.0000     -10.057378      -273.6752 
  13   2.0000     -10.043173      -273.2886 
  14   2.0000      -1.057517       -28.7765 
  15   2.0000      -1.051765       -28.6200 
  16   2.0000      -0.967738       -26.3335 
  17   2.0000      -0.875141       -23.8138 
  18   2.0000      -0.821452       -22.3528 
  19   2.0000      -0.777731       -21.1631 
  20   2.0000      -0.766514       -20.8579 
  21   2.0000      -0.717477       -19.5236 
  22   2.0000      -0.651432       -17.7264 
  23   2.0000      -0.635006       -17.2794 
  24   2.0000      -0.603872       -16.4322 
  25   2.0000      -0.581927       -15.8350 
  26   2.0000      -0.550710       -14.9856 
  27   2.0000      -0.504438       -13.7264 
  28   2.0000      -0.490735       -13.3536 
  29   2.0000      -0.481744       -13.1089 
  30   2.0000      -0.462163       -12.5761 
  31   2.0000      -0.459016       -12.4905 
  32   2.0000      -0.447075       -12.1655 
  33   2.0000      -0.439244       -11.9524 
  34   2.0000      -0.423692       -11.5293 
  35   2.0000      -0.406299       -11.0560 
  36   2.0000      -0.398443       -10.8422 
  37   2.0000      -0.375399       -10.2151 
  38   2.0000      -0.372119       -10.1259 
  39   2.0000      -0.355305        -9.6683 
  40   2.0000      -0.351318        -9.5598 
  41   2.0000      -0.346294        -9.4231 
  42   2.0000      -0.327758        -8.9188 
  43   2.0000      -0.285186        -7.7603 
  44   2.0000      -0.283234        -7.7072 
  45   2.0000      -0.272721        -7.4211 
  46   2.0000      -0.259039        -7.0488 
  47   2.0000      -0.236930        -6.4472 
  48   2.0000      -0.202772        -5.5177 
  49   0.0000      -0.093095        -2.5332 
  50   0.0000      -0.074661        -2.0316 
  51   0.0000      -0.047985        -1.3057 
  52   0.0000       0.023704         0.6450 
  53   0.0000       0.058203         1.5838 
  54   0.0000       0.065529         1.7831 
  55   0.0000       0.067546         1.8380 
  56   0.0000       0.078089         2.1249 
  57   0.0000       0.087684         2.3860 
  58   0.0000       0.096427         2.6239 
  59   0.0000       0.104697         2.8490 
*Only the first 10 virtual orbitals were printed.

                    ********************************
                    * MULLIKEN POPULATION ANALYSIS *
                    ********************************

-----------------------
MULLIKEN ATOMIC CHARGES
-----------------------
   0 N :   -0.427711
   1 C :   -0.224564
   2 C :    0.307004
   3 C :   -0.049214
   4 N :    0.570664
   5 C :   -0.183909
   6 C :   -0.124329
   7 C :   -0.154996
   8 C :   -0.273447
   9 C :   -0.162364
  10 C :   -0.212546
  11 C :    0.282925
  12 O :   -0.394498
  13 O :   -0.370615
  14 H :    0.157322
  15 H :    0.325204
  16 H :    0.158161
  17 H :    0.141033
  18 H :    0.163473
  19 H :    0.158156
  20 H :    0.155824
  21 H :    0.158425
Sum of atomic charges:   -0.0000000

--------------------------------
MULLIKEN REDUCED ORBITAL CHARGES
--------------------------------
  0 N s       :     3.705350  s :     3.705350
      pz      :     1.244964  p :     3.630882
      px      :     0.985982
      py      :     1.399937
      dz2     :     0.009637  d :     0.091478
      dxz     :     0.029925
      dyz     :     0.016603
      dx2y2   :     0.005359
      dxy     :     0.029954

  1 C s       :     3.347458  s :     3.347458
      pz      :     0.944307  p :     2.823920
      px      :     0.966218
      py      :     0.913395
      dz2     :     0.004892  d :     0.053185
      dxz     :     0.006056
      dyz     :     0.008881
      dx2y2   :     0.015866
      dxy     :     0.017490

  2 C s       :     3.104985  s :     3.104985
      pz      :     1.079358  p :     2.539331
      px      :     0.811292
      py      :     0.648681
      dz2     :     0.004239  d :     0.048681
      dxz     :     0.006705
      dyz     :     0.006778
      dx2y2   :     0.019006
      dxy     :     0.011951

  3 C s       :     3.334808  s :     3.334808
      pz      :     0.979975  p :     2.653276
      px      :     0.720596
      py      :     0.952706
      dz2     :     0.004986  d :     0.061130
      dxz     :     0.010344
      dyz     :     0.008200
      dx2y2   :     0.021488
      dxy     :     0.016112

  4 N s       :     3.000125  s :     3.000125
      pz      :     1.345707  p :     3.139430
      px      :     0.882538
      py      :     0.911185
      dz2     :     0.009236  d :     0.289781
      dxz     :     0.064684
      dyz     :     0.035396
      dx2y2   :     0.076378
      dxy     :     0.104086

  5 C s       :     3.293609  s :     3.293609
      pz      :     0.970524  p :     2.840004
      px      :     0.884065
      py      :     0.985415
      dz2     :     0.004176  d :     0.050296
      dxz     :     0.011321
      dyz     :     0.003287
      dx2y2   :     0.018475
      dxy     :     0.013037

  6 C s       :     3.149609  s :     3.149609
      pz      :     1.022785  p :     2.937130
      px      :     1.006645
      py      :     0.907699
      dz2     :     0.003537  d :     0.037590
      dxz     :     0.003471
      dyz     :     0.006396
      dx2y2   :     0.011323
      dxy     :     0.012862

  7 C s       :     3.208393  s :     3.208393
      pz      :     0.976830  p :     2.907969
      px      :     0.981169
      py      :     0.949971
      dz2     :     0.003598  d :     0.038633
      dxz     :     0.005064
      dyz     :     0.004963
      dx2y2   :     0.012021
      dxy     :     0.012987

  8 C s       :     3.231001  s :     3.231001
      pz      :     1.003137  p :     3.003674
      px      :     0.932708
      py      :     1.067830
      dz2     :     0.003358  d :     0.038771
      dxz     :     0.007304
      dyz     :     0.003028
      dx2y2   :     0.011230
      dxy     :     0.013850

  9 C s       :     3.242096  s :     3.242096
      pz      :     0.929014  p :     2.879472
      px      :     1.007265
      py      :     0.943193
      dz2     :     0.003526  d :     0.040796
      dxz     :     0.008509
      dyz     :     0.003266
      dx2y2   :     0.010883
      dxy     :     0.014611

 10 C s       :     3.131366  s :     3.131366
      pz      :     1.055837  p :     3.046136
      px      :     0.953213
      py      :     1.037086
      dz2     :     0.003255  d :     0.035044
      dxz     :     0.005448
      dyz     :     0.002265
      dx2y2   :     0.009593
      dxy     :     0.014483

 11 C s       :     3.091116  s :     3.091116
      pz      :     0.792787  p :     2.501411
      px      :     0.798878
      py      :     0.909746
      dz2     :     0.006786  d :     0.124549
      dxz     :     0.025097
      dyz     :     0.011562
      dx2y2   :     0.028479
      dxy     :     0.052625

 12 O s       :     3.828433  s :     3.828433
      pz      :     1.462300  p :     4.538146
      px      :     1.290481
      py      :     1.785365
      dz2     :     0.004004  d :     0.027919
      dxz     :     0.008308
      dyz     :     0.001439
      dx2y2   :     0.012778
      dxy     :     0.001391

 13 O s       :     3.740703  s :     3.740703
      pz      :     1.787825  p :     4.600761
      px      :     1.577718
      py      :     1.235218
      dz2     :     0.003157  d :     0.029152
      dxz     :     0.006184
      dyz     :     0.003507
      dx2y2   :     0.005033
      dxy     :     0.011270

 14 H s       :     0.823375  s :     0.823375
      pz      :     0.004340  p :     0.019304
      px      :     0.005819
      py      :     0.009145

 15 H s       :     0.632256  s :     0.632256
      pz      :     0.011915  p :     0.042540
      px      :     0.015079
      py      :     0.015545

 16 H s       :     0.822564  s :     0.822564
      pz      :     0.003823  p :     0.019274
      px      :     0.004840
      py      :     0.010611

 17 H s       :     0.839260  s :     0.839260
      pz      :     0.003909  p :     0.019707
      px      :     0.011396
      py      :     0.004402

 18 H s       :     0.816707  s :     0.816707
      pz      :     0.004391  p :     0.019820
      px      :     0.002635
      py      :     0.012794

 19 H s       :     0.822321  s :     0.822321
      pz      :     0.004445  p :     0.019524
      px      :     0.011259
      py      :     0.003820

 20 H s       :     0.824818  s :     0.824818
      pz      :     0.004077  p :     0.019358
      px      :     0.008087
      py      :     0.007193

 21 H s       :     0.822081  s :     0.822081
      pz      :     0.004486  p :     0.019494
      px      :     0.003413
      py      :     0.011594



                     *******************************
                     * LOEWDIN POPULATION ANALYSIS *
                     *******************************

----------------------
LOEWDIN ATOMIC CHARGES
----------------------
   0 N :   -0.337546
   1 C :    0.155453
   2 C :   -0.061630
   3 C :    0.213078
   4 N :   -0.602262
   5 C :    0.157678
   6 C :   -0.143999
   7 C :   -0.138943
   8 C :   -0.109118
   9 C :   -0.083410
  10 C :   -0.137228
  11 C :    0.349573
  12 O :   -0.429132
  13 O :   -0.441075
  14 H :    0.183699
  15 H :    0.290327
  16 H :    0.190950
  17 H :    0.197205
  18 H :    0.210821
  19 H :    0.179117
  20 H :    0.175330
  21 H :    0.181110

-------------------------------
LOEWDIN REDUCED ORBITAL CHARGES
-------------------------------
  0 N s       :     3.179654  s :     3.179654
      pz      :     1.179470  p :     3.634307
      px      :     1.057001
      py      :     1.397836
      dz2     :     0.052347  d :     0.523585
      dxz     :     0.125579
      dyz     :     0.047360
      dx2y2   :     0.141253
      dxy     :     0.157045

  1 C s       :     2.827190  s :     2.827190
      pz      :     0.884403  p :     2.906089
      px      :     1.027697
      py      :     0.993989
      dz2     :     0.009258  d :     0.111268
      dxz     :     0.008924
      dyz     :     0.017300
      dx2y2   :     0.037637
      dxy     :     0.038149

  2 C s       :     2.832357  s :     2.832357
      pz      :     1.066909  p :     3.132573
      px      :     1.014140
      py      :     1.051525
      dz2     :     0.007377  d :     0.096700
      dxz     :     0.011654
      dyz     :     0.011738
      dx2y2   :     0.040085
      dxy     :     0.025846

  3 C s       :     2.763409  s :     2.763409
      pz      :     0.928100  p :     2.897502
      px      :     1.029105
      py      :     0.940297
      dz2     :     0.010009  d :     0.126011
      dxz     :     0.018864
      dyz     :     0.015855
      dx2y2   :     0.046940
      dxy     :     0.034343

  4 N s       :     2.995080  s :     2.995080
      pz      :     1.297053  p :     3.670004
      px      :     1.183391
      py      :     1.189560
      dz2     :     0.089086  d :     0.937178
      dxz     :     0.168734
      dyz     :     0.128451
      dx2y2   :     0.273182
      dxy     :     0.277725

  5 C s       :     2.814747  s :     2.814747
      pz      :     0.907927  p :     2.919649
      px      :     0.954809
      py      :     1.056913
      dz2     :     0.007974  d :     0.107926
      dxz     :     0.022043
      dyz     :     0.005453
      dx2y2   :     0.040967
      dxy     :     0.031489

  6 C s       :     2.897127  s :     2.897127
      pz      :     1.010083  p :     3.168212
      px      :     1.079493
      py      :     1.078635
      dz2     :     0.005890  d :     0.078660
      dxz     :     0.005528
      dyz     :     0.012094
      dx2y2   :     0.026491
      dxy     :     0.028658

  7 C s       :     2.905559  s :     2.905559
      pz      :     0.972613  p :     3.152268
      px      :     1.098335
      py      :     1.081320
      dz2     :     0.006102  d :     0.081116
      dxz     :     0.009095
      dyz     :     0.008897
      dx2y2   :     0.026903
      dxy     :     0.030120

  8 C s       :     2.890439  s :     2.890439
      pz      :     0.989766  p :     3.138382
      px      :     1.073868
      py      :     1.074749
      dz2     :     0.005437  d :     0.080297
      dxz     :     0.013539
      dyz     :     0.004775
      dx2y2   :     0.026797
      dxy     :     0.029749

  9 C s       :     2.898244  s :     2.898244
      pz      :     0.916422  p :     3.099830
      px      :     1.103199
      py      :     1.080209
      dz2     :     0.006094  d :     0.085336
      dxz     :     0.015715
      dyz     :     0.005819
      dx2y2   :     0.025201
      dxy     :     0.032507

 10 C s       :     2.904059  s :     2.904059
      pz      :     1.032161  p :     3.158850
      px      :     1.075493
      py      :     1.051196
      dz2     :     0.005797  d :     0.074319
      dxz     :     0.009741
      dyz     :     0.003591
      dx2y2   :     0.023176
      dxy     :     0.032014

 11 C s       :     2.743570  s :     2.743570
      pz      :     0.744354  p :     2.643127
      px      :     0.983448
      py      :     0.915325
      dz2     :     0.018022  d :     0.263730
      dxz     :     0.046336
      dyz     :     0.020639
      dx2y2   :     0.064198
      dxy     :     0.114535

 12 O s       :     3.555581  s :     3.555581
      pz      :     1.447096  p :     4.665629
      px      :     1.473412
      py      :     1.745120
      dz2     :     0.027274  d :     0.207922
      dxz     :     0.047039
      dyz     :     0.008068
      dx2y2   :     0.057677
      dxy     :     0.067863

 13 O s       :     3.499619  s :     3.499619
      pz      :     1.750332  p :     4.701148
      px      :     1.610507
      py      :     1.340309
      dz2     :     0.033453  d :     0.240308
      dxz     :     0.024395
      dyz     :     0.037115
      dx2y2   :     0.065255
      dxy     :     0.080090

 14 H s       :     0.771686  s :     0.771686
      pz      :     0.009832  p :     0.044615
      px      :     0.013145
      py      :     0.021637

 15 H s       :     0.590307  s :     0.590307
      pz      :     0.030518  p :     0.119365
      px      :     0.044949
      py      :     0.043898

 16 H s       :     0.764431  s :     0.764431
      pz      :     0.008084  p :     0.044619
      px      :     0.010848
      py      :     0.025687

 17 H s       :     0.760667  s :     0.760667
      pz      :     0.008250  p :     0.042128
      px      :     0.023643
      py      :     0.010235

 18 H s       :     0.746402  s :     0.746402
      pz      :     0.009445  p :     0.042777
      px      :     0.004946
      py      :     0.028386

 19 H s       :     0.775756  s :     0.775756
      pz      :     0.009855  p :     0.045127
      px      :     0.026549
      py      :     0.008723

 20 H s       :     0.780161  s :     0.780161
      pz      :     0.008834  p :     0.044509
      px      :     0.018905
      py      :     0.016771

 21 H s       :     0.773916  s :     0.773916
      pz      :     0.009882  p :     0.044974
      px      :     0.007694
      py      :     0.027398



                      *****************************
                      * MAYER POPULATION ANALYSIS *
                      *****************************

  NA   - Mulliken gross atomic population
  ZA   - Total nuclear charge
  QA   - Mulliken gross atomic charge
  VA   - Mayer's total valence
  BVA  - Mayer's bonded valence
  FA   - Mayer's free valence

  ATOM       NA         ZA         QA         VA         BVA        FA
  0 N      7.4277     7.0000    -0.4277     2.9978     2.9978    -0.0000
  1 C      6.2246     6.0000    -0.2246     3.8943     3.8943     0.0000
  2 C      5.6930     6.0000     0.3070     2.9663     2.9663     0.0000
  3 C      6.0492     6.0000    -0.0492     3.9686     3.9686     0.0000
  4 N      6.4293     7.0000     0.5707     3.7683     3.7683    -0.0000
  5 C      6.1839     6.0000    -0.1839     3.9129     3.9129    -0.0000
  6 C      6.1243     6.0000    -0.1243     3.7177     3.7177    -0.0000
  7 C      6.1550     6.0000    -0.1550     3.8475     3.8475    -0.0000
  8 C      6.2734     6.0000    -0.2734     3.7557     3.7557    -0.0000
  9 C      6.1624     6.0000    -0.1624     3.5774     3.5774     0.0000
 10 C      6.2125     6.0000    -0.2125     3.8636     3.8636     0.0000
 11 C      5.7171     6.0000     0.2829     4.1621     4.1621     0.0000
 12 O      8.3945     8.0000    -0.3945     2.0240     2.0240     0.0000
 13 O      8.3706     8.0000    -0.3706     1.9322     1.9322    -0.0000
 14 H      0.8427     1.0000     0.1573     0.9655     0.9655     0.0000
 15 H      0.6748     1.0000     0.3252     0.9031     0.9031    -0.0000
 16 H      0.8418     1.0000     0.1582     0.9633     0.9633     0.0000
 17 H      0.8590     1.0000     0.1410     0.9743     0.9743     0.0000
 18 H      0.8365     1.0000     0.1635     0.9687     0.9687     0.0000
 19 H      0.8418     1.0000     0.1582     0.9669     0.9669     0.0000
 20 H      0.8442     1.0000     0.1558     0.9664     0.9664    -0.0000
 21 H      0.8416     1.0000     0.1584     0.9681     0.9681    -0.0000

  Mayer bond orders larger than 0.100000
B(  0-N ,  1-C ) :   1.5098 B(  0-N ,  2-C ) :  -0.1020 B(  0-N ,  3-C ) :   0.1974 
B(  0-N ,  4-N ) :   1.1790 B(  0-N ,  5-C ) :   0.1030 B(  1-C ,  2-C ) :   1.2082 
B(  1-C ,  9-C ) :  -0.1044 B(  1-C , 17-H ) :   0.9850 B(  2-C ,  3-C ) :   1.0790 
B(  2-C ,  8-C ) :  -0.1330 B(  2-C ,  9-C ) :   0.9019 B(  3-C ,  4-N ) :   1.2197 
B(  3-C ,  8-C ) :   1.3046 B(  4-N ,  5-C ) :   1.2294 B(  5-C ,  6-C ) :   1.4916 
B(  5-C , 18-H ) :   0.9552 B(  6-C ,  7-C ) :   1.2386 B(  6-C , 19-H ) :   0.9377 
B(  7-C ,  8-C ) :   1.5395 B(  7-C , 20-H ) :   0.9516 B(  8-C , 21-H ) :   0.9220 
B(  9-C , 10-C ) :   1.6486 B(  9-C , 16-H ) :   0.9860 B( 10-C , 11-C ) :   1.1293 
B( 10-C , 14-H ) :   0.9450 B( 11-C , 12-O ) :   1.9126 B( 11-C , 13-O ) :   1.0212 
B( 13-O , 15-H ) :   0.8677 

-------
TIMINGS
-------

Total SCF time: 0 days 0 hours 0 min 0 sec 

Total time                  ....       0.681 sec
Sum of individual times     ....       0.564 sec  ( 82.8%)

SCF preparation             ....       0.062 sec  (  9.1%)
Fock matrix formation       ....       0.429 sec  ( 63.0%)
  Startup                   ....       0.003 sec  (  0.6% of F)
  Split-RI-J                ....       0.131 sec  ( 30.5% of F)
  XC integration            ....       0.384 sec  ( 89.5% of F)
    Basis function eval.    ....       0.044 sec  ( 11.4% of XC)
    Density eval.           ....       0.113 sec  ( 29.3% of XC)
    XC-Functional eval.     ....       0.026 sec  (  6.8% of XC)
    XC-Potential eval.      ....       0.133 sec  ( 34.6% of XC)
Diagonalization             ....       0.000 sec  (  0.0%)
Density matrix formation    ....       0.005 sec  (  0.7%)
Total Energy calculation    ....       0.002 sec  (  0.4%)
Population analysis         ....       0.010 sec  (  1.4%)
Orbital Transformation      ....       0.011 sec  (  1.6%)
Orbital Orthonormalization  ....       0.000 sec  (  0.0%)
DIIS solution               ....       0.012 sec  (  1.8%)
SOSCF solution              ....       0.033 sec  (  4.8%)
Finished LeanSCF after   0.7 sec

Maximum memory used throughout the entire LEANSCF-calculation: 20.6 MB


-------------------------------------------------------------------------------
                          DFT DISPERSION CORRECTION                            
                                                                               
                                DFTD4 V3.4.0                                   
-------------------------------------------------------------------------------
The R2SCAN3C composite method is recognized
Using three-body term ABC
Active option DFTDOPT                   ...         5   

-------------------------   ----------------
Dispersion correction           -0.008692524
-------------------------   ----------------

------------------   -----------------
gCP correction             0.013041834
------------------   -----------------

-------------------------   --------------------
FINAL SINGLE POINT ENERGY      -645.700522373557
-------------------------   --------------------



           ************************************************************
           *        Program running with 16 parallel MPI-processes    *
           *              working on a common directory               *
           ************************************************************

------------------------------------------------------------------------------
                              ORCA PROPERTY CALCULATIONS
------------------------------------------------------------------------------

GBWName                                 ... LUMO.gbw
Number of atoms                         ...     22
Number of basis functions               ...    326
Max core memory                         ...   4096 MB

Electric properties:
Dipole moment                           ... YES
Quadrupole moment                       ...  NO
Static polarizability (Dipole/Dipole)   ...  NO
Static polarizability (Dipole/Quad.)    ...  NO
Static polarizability (Quad./Quad.)     ...  NO
Static polarizability (Velocity)        ...  NO
Static hyperpolarizability              ...  NO

Atomic electric properties:
Dipole moment                           ...  NO
Quadrupole moment                       ...  NO
Static polarizability                   ...  NO

Choice of electric origin               ... Center of mass
Position of electric origin             ...    -2.451887    -2.525837     0.357806

General magnetic properties:
Magnetizability                         ...  NO

EPR properties:
g-Tensor (aka g-matrix)                 ...  NO
Zero-Field splitting spin-orbit         ...  NO
Zero-field splitting spin-spin          ...  NO
Hyperfine couplings                     ...  NO (   0 nuclei)
Quadrupole couplings                    ...  NO (   0 nuclei)
Contact density                         ...  NO (   0 nuclei)

NMR properties:
Chemical shifts                         ...  NO (   0 nuclei)
Spin-rotation constants                 ...  NO (   0 nuclei)
Spin-spin couplings                     ...  NO (   0 nuclei,    0 pairs)

Choice of magnetic origin               ... GIAO
Position of magnetic origin             ...     0.000000     0.000000     0.000000

Properties with geometric perturbations:
SCF Hessian                             ...  NO
IR spectrum                             ...  NO
VCD spectrum                            ...  NO
X-ray spectroscopy properties:
SCF XES/XAS/RIXS spectra                ...  NO

SCF SOC stabilization energy            ...  NO
Diagonal Born-Oppenheimer correction    ...  NO

-------------
DIPOLE MOMENT
-------------

Method             : SCF
Type of density    : Electron Density
Multiplicity       :   1
Irrep              :   0
Energy             :  -645.7048716839162807 Eh
Basis              : AO
                                X                 Y                 Z
Electronic contribution:     -3.279272183       0.796254936       0.096549695
Nuclear contribution   :      5.538493772      -0.844122967      -0.265538919
                        -----------------------------------------
Total Dipole Moment    :      2.259221589      -0.047868031      -0.168989224
                        -----------------------------------------
Magnitude (a.u.)       :      2.266038591
Magnitude (Debye)      :      5.759812358



--------------------
Rotational spectrum 
--------------------
 
Rotational constants in cm-1:             0.063688             0.010868             0.009284 
Rotational constants in MHz :          1909.304316           325.817609           278.322885 

Dipole components along the rotational axes: 
x,y,z [a.u.] :    -1.945716     1.161516     0.001351 
x,y,z [Debye]:    -4.945616     2.952339     0.003433 

 

Dipole moment calculation done in   0.0 sec 

Maximum memory used throughout the entire PROP-calculation: 16.6 MB

--------------------------------
SUGGESTED CITATIONS FOR THIS RUN
--------------------------------

Below you find a list of papers that are relevant to this ORCA run
We neither can nor want to force you to cite these papers, but we appreciate if you do
You receive ORCA, which is the product of decades of hard work by many enthusiastic individuals, for free
The only thing we kindly ask in return is that you cite our papers,
We deeply appreciate it, if you show your appreciation for ORCA by not just citing the generic ORCA reference.

Please note that relegating all ORCA citations to the supporting information does *not* help us.
SI sections are not indexed - citations you put there will not count into any citation statistics
But we need these citations in order to attract the funding resources that allow us to do what we are doing

Therefore, if you are a happy ORCA user, please consider citing a few of the papers listed below in the main body of your paper

In addition to the list printed below, the program has created the file LUMO.bibtex that contains the list in bibtex format
You can import this file easily into all common literature databanks and citation aid programs

It goes without saying that in many instances, there are alternative algorithms to achieve similar
results as the ones you have gotten from ORCA. It is, of course, also the case that in some instances
ORCA just re-implements algorithms worked out by others. We are fully aware of that and we are also
fully appreciative of our colleagues work. Hence this citation list should not be read as indicating
that the listed papers, which are focused on our own work, are the only ones worth citing. It simply
meant to make it easier for users to cite ORCA specific papers. It is not a substitute for doing your
own literature research and citing the relevant literature in a scientifically appropriate manner.

List of essential papers. We consider these as the minimum necessary citations

  1. Grimme, S.; Hansen, A.; Ehlert, S.; Mewes, J.
     r2SCAN-3c: A 'Swiss army knife' composite electronic-structure method
     J. Chem. Phys. 2021 154 , 064103
     doi.org/10.1063/5.0040021
  2. Neese, F.
     Software update: the ORCA program system, version 6.0
     WIRES Comput. Molec. Sci. 2025 15(1), e70019
     doi.org/10.1002/wcms.70019

List of papers to cite with high priority. The work reported in these papers was absolutely
necessary for this run to complete.
Our perspective: the developers of density functionals and basis sets usually get cited in chemistry papers
Good! But without the algorithms to do something with them, the functionals or basis sets would not do anything.
Hence, in our opinion, the algorithm design and method developments papers are equally worthy of getting cited

  1. Neese, F.
     An improvement of the resolution of the identity approximation for the formation of the Coulomb matrix
     J. Comp. Chem. 2003 24(14), 1740-1747
     doi.org/10.1002/jcc.10318
  2. Caldeweyher, E.; Bannwarth, C.; Grimme, S.
     Extension of the D3 dispersion coefficient model
     J. Chem. Phys. 2017 147 , 034112
     doi.org/10.1063/1.4993215
  3. Lehtola, S.; Steigemann, C.; Oliveira, M.; Marques, M.
     Recent developments in Libxc - A comprehensive library of functionals for density functional theory
     Software X 2018 7 , 
     doi.org/10.1016/j.softx.2017.11.002
  4. Caldeweyher, E.; Ehlert, S.; Hansen, A.; Neugebauer, H.; Spicher, S.; Bannwarth, C.; Grimme, S.
     A generally applicable atomic-charge dependent London dispersion correction
     J. Chem. Phys. 2019 150 , 154122
     doi.org/10.1063/1.5090222
  5. Neese, F.
     The SHARK Integral Generation and Digestion System
     J. Comp. Chem. 2022 44(3), 381
     doi.org/10.1002/jcc.26942

List of suggested additional citations. These are papers that are important in the 'surrounding' of 
of this run, or papers that preceded the highly important papers. If you like your results we are grateful for a citation.

  1. Neese, F.
     The ORCA program system
     WIRES Comput. Molec. Sci. 2012 2(1), 73-78
     doi.org/10.1002/wcms.81
  2. Neese, F.
     Software update: the ORCA program system, version 4.0
     WIRES Comput. Molec. Sci. 2018 8(1), 1-6
     doi.org/10.1002/wcms.1327
  3. Neese, F.; Wennmohs, F.; Becker, U.; Riplinger, C.
     The ORCA quantum chemistry program package
     J. Chem. Phys. 2020 152(22), 224108
     doi.org/10.1063/5.0004608
  4. Neese, F.
     Software update: The ORCA program system—Version 5.0
     WIRES Comput. Molec. Sci. 2022 12(1), e1606
     doi.org/10.1002/wcms.1606

List of optional additional citations

  1. Neese, F.
     Approximate second-order SCF convergence for spin unrestricted wavefunctions
     Chem. Phys. Lett. 2000 325(1-3), 93-98
     doi.org/10.1016/s0009-2614(00)00662-x

Timings for individual modules:

Sum of individual times          ...        2.698 sec (=   0.045 min)
Startup calculation              ...        0.901 sec (=   0.015 min)  33.4 %
SCF iterations                   ...        1.414 sec (=   0.024 min)  52.4 %
Property calculations            ...        0.383 sec (=   0.006 min)  14.2 %
                             ****ORCA TERMINATED NORMALLY****
TOTAL RUN TIME: 0 days 0 hours 0 minutes 3 seconds 64 msec
