[Molden Format]
[Title]
 Molden file created by orca_2mkl for BaseName=LUMO

[Atoms] AU
N    1   7         -1.5896497940         2.2735659782        -0.6707605762 
C    2   6         -3.5517065569         0.7660526516        -0.2167731739 
C    3   6         -2.8582594780        -1.7725623494         0.2365664606 
C    4   6         -0.2038707993        -1.7595704506         0.0277989527 
N    5   7          0.4456016425         0.7277050051        -0.5198478329 
C    6   6          2.8724499181         1.5068424093        -0.8640867421 
C    7   6          4.7723038155        -0.2269898614        -0.6650413588 
C    8   6          4.2080095634        -2.7832015926        -0.1100398230 
C    9   6          1.7511137975        -3.5450140364         0.2332493099 
C   10   6         -4.3996499845        -3.9270382017         0.7873733734 
C   11   6         -6.9421057885        -3.9384011726         0.9935288622 
C   12   6         -8.4250484169        -6.1877486026         1.5596146091 
O   13   8        -10.7152852325        -6.2162431657         1.7520302977 
O   14   8         -7.0095173153        -8.3305949011         1.8664182400 
H   15   1         -8.0667068575        -2.2403892834         0.7479789369 
H   16   1         -8.2123110879        -9.6624773074         2.2281232308 
H   17   1         -3.4141782448        -5.7110803646         1.0626166698 
H   18   1         -5.4339117505         1.5682080598        -0.2312309518 
H   19   1          3.1180045191         3.4964926496        -1.2805274494 
H   20   1          6.7072563680         0.3847970183        -0.9375078083 
H   21   1          5.7337750983        -4.1439107256         0.0436709339 
H   22   1          1.2889512240        -5.4962015954         0.6598934092 
[GTO]
  1 0
s   6 1.0 
    19730.8006470000         0.6956035199
     2957.8958745000         1.2986099328
      673.2213359500         2.2190880635
      190.6824949400         3.4636607549
       62.2954418980         4.6967555531
       22.6541611820         4.9522510945
s   2 1.0 
        8.9791477428         2.3880677979
        3.6863002370         0.7337878750
s   1 1.0 
        0.8466007680         0.6290267082
s   1 1.0 
        0.3364713377         0.3148626514
s   1 1.0 
        0.1364765368         0.1600308040
p   4 1.0 
       49.2003805100         2.1264813968
       11.3467905370         2.3279367185
        3.4273972411         2.0485729192
        1.1785525134         1.2607319854
p   1 1.0 
        0.4164220497         0.4768230427
p   1 1.0 
        0.1426082601         0.1249168256
d   1 1.0 
        1.1000000000         3.3682729889
d   1 1.0 
        0.2000000000         0.1705189210

  2 0
s   6 1.0 
    13575.3496820000         0.5435905310
     2035.2333680000         1.0145543947
      463.2256235900         1.7315731970
      131.2001959800         2.6910376290
       42.8530158910         3.6044547126
       15.5841857660         3.7025556986
s   2 1.0 
        6.2067138508         1.8383540830
        2.5764896527         0.5447575605
s   1 1.0 
        0.5769633942         0.4718145038
s   1 1.0 
        0.2297283136         0.2364944676
s   1 1.0 
        0.0951644400         0.1221141848
p   4 1.0 
       34.6972322440         1.3596651510
        7.9582622826         1.4512589489
        2.3780826883         1.2709231421
        0.8143320818         0.8025721189
p   1 1.0 
        0.2888754725         0.3018758868
p   1 1.0 
        0.1005682367         0.0807265016
d   1 1.0 
        0.8000000000         1.9292013661

  3 0
s   6 1.0 
    13575.3496820000         0.5435905310
     2035.2333680000         1.0145543947
      463.2256235900         1.7315731970
      131.2001959800         2.6910376290
       42.8530158910         3.6044547126
       15.5841857660         3.7025556986
s   2 1.0 
        6.2067138508         1.8383540830
        2.5764896527         0.5447575605
s   1 1.0 
        0.5769633942         0.4718145038
s   1 1.0 
        0.2297283136         0.2364944676
s   1 1.0 
        0.0951644400         0.1221141848
p   4 1.0 
       34.6972322440         1.3596651510
        7.9582622826         1.4512589489
        2.3780826883         1.2709231421
        0.8143320818         0.8025721189
p   1 1.0 
        0.2888754725         0.3018758868
p   1 1.0 
        0.1005682367         0.0807265016
d   1 1.0 
        0.8000000000         1.9292013661

  4 0
s   6 1.0 
    13575.3496820000         0.5435905310
     2035.2333680000         1.0145543947
      463.2256235900         1.7315731970
      131.2001959800         2.6910376290
       42.8530158910         3.6044547126
       15.5841857660         3.7025556986
s   2 1.0 
        6.2067138508         1.8383540830
        2.5764896527         0.5447575605
s   1 1.0 
        0.5769633942         0.4718145038
s   1 1.0 
        0.2297283136         0.2364944676
s   1 1.0 
        0.0951644400         0.1221141848
p   4 1.0 
       34.6972322440         1.3596651510
        7.9582622826         1.4512589489
        2.3780826883         1.2709231421
        0.8143320818         0.8025721189
p   1 1.0 
        0.2888754725         0.3018758868
p   1 1.0 
        0.1005682367         0.0807265016
d   1 1.0 
        0.8000000000         1.9292013661

  5 0
s   6 1.0 
    19730.8006470000         0.6956035199
     2957.8958745000         1.2986099328
      673.2213359500         2.2190880635
      190.6824949400         3.4636607549
       62.2954418980         4.6967555531
       22.6541611820         4.9522510945
s   2 1.0 
        8.9791477428         2.3880677979
        3.6863002370         0.7337878750
s   1 1.0 
        0.8466007680         0.6290267082
s   1 1.0 
        0.3364713377         0.3148626514
s   1 1.0 
        0.1364765368         0.1600308040
p   4 1.0 
       49.2003805100         2.1264813968
       11.3467905370         2.3279367185
        3.4273972411         2.0485729192
        1.1785525134         1.2607319854
p   1 1.0 
        0.4164220497         0.4768230427
p   1 1.0 
        0.1426082601         0.1249168256
d   1 1.0 
        1.1000000000         3.3682729889
d   1 1.0 
        0.2000000000         0.1705189210

  6 0
s   6 1.0 
    13575.3496820000         0.5435905310
     2035.2333680000         1.0145543947
      463.2256235900         1.7315731970
      131.2001959800         2.6910376290
       42.8530158910         3.6044547126
       15.5841857660         3.7025556986
s   2 1.0 
        6.2067138508         1.8383540830
        2.5764896527         0.5447575605
s   1 1.0 
        0.5769633942         0.4718145038
s   1 1.0 
        0.2297283136         0.2364944676
s   1 1.0 
        0.0951644400         0.1221141848
p   4 1.0 
       34.6972322440         1.3596651510
        7.9582622826         1.4512589489
        2.3780826883         1.2709231421
        0.8143320818         0.8025721189
p   1 1.0 
        0.2888754725         0.3018758868
p   1 1.0 
        0.1005682367         0.0807265016
d   1 1.0 
        0.8000000000         1.9292013661

  7 0
s   6 1.0 
    13575.3496820000         0.5435905310
     2035.2333680000         1.0145543947
      463.2256235900         1.7315731970
      131.2001959800         2.6910376290
       42.8530158910         3.6044547126
       15.5841857660         3.7025556986
s   2 1.0 
        6.2067138508         1.8383540830
        2.5764896527         0.5447575605
s   1 1.0 
        0.5769633942         0.4718145038
s   1 1.0 
        0.2297283136         0.2364944676
s   1 1.0 
        0.0951644400         0.1221141848
p   4 1.0 
       34.6972322440         1.3596651510
        7.9582622826         1.4512589489
        2.3780826883         1.2709231421
        0.8143320818         0.8025721189
p   1 1.0 
        0.2888754725         0.3018758868
p   1 1.0 
        0.1005682367         0.0807265016
d   1 1.0 
        0.8000000000         1.9292013661

  8 0
s   6 1.0 
    13575.3496820000         0.5435905310
     2035.2333680000         1.0145543947
      463.2256235900         1.7315731970
      131.2001959800         2.6910376290
       42.8530158910         3.6044547126
       15.5841857660         3.7025556986
s   2 1.0 
        6.2067138508         1.8383540830
        2.5764896527         0.5447575605
s   1 1.0 
        0.5769633942         0.4718145038
s   1 1.0 
        0.2297283136         0.2364944676
s   1 1.0 
        0.0951644400         0.1221141848
p   4 1.0 
       34.6972322440         1.3596651510
        7.9582622826         1.4512589489
        2.3780826883         1.2709231421
        0.8143320818         0.8025721189
p   1 1.0 
        0.2888754725         0.3018758868
p   1 1.0 
        0.1005682367         0.0807265016
d   1 1.0 
        0.8000000000         1.9292013661

  9 0
s   6 1.0 
    13575.3496820000         0.5435905310
     2035.2333680000         1.0145543947
      463.2256235900         1.7315731970
      131.2001959800         2.6910376290
       42.8530158910         3.6044547126
       15.5841857660         3.7025556986
s   2 1.0 
        6.2067138508         1.8383540830
        2.5764896527         0.5447575605
s   1 1.0 
        0.5769633942         0.4718145038
s   1 1.0 
        0.2297283136         0.2364944676
s   1 1.0 
        0.0951644400         0.1221141848
p   4 1.0 
       34.6972322440         1.3596651510
        7.9582622826         1.4512589489
        2.3780826883         1.2709231421
        0.8143320818         0.8025721189
p   1 1.0 
        0.2888754725         0.3018758868
p   1 1.0 
        0.1005682367         0.0807265016
d   1 1.0 
        0.8000000000         1.9292013661

 10 0
s   6 1.0 
    13575.3496820000         0.5435905310
     2035.2333680000         1.0145543947
      463.2256235900         1.7315731970
      131.2001959800         2.6910376290
       42.8530158910         3.6044547126
       15.5841857660         3.7025556986
s   2 1.0 
        6.2067138508         1.8383540830
        2.5764896527         0.5447575605
s   1 1.0 
        0.5769633942         0.4718145038
s   1 1.0 
        0.2297283136         0.2364944676
s   1 1.0 
        0.0951644400         0.1221141848
p   4 1.0 
       34.6972322440         1.3596651510
        7.9582622826         1.4512589489
        2.3780826883         1.2709231421
        0.8143320818         0.8025721189
p   1 1.0 
        0.2888754725         0.3018758868
p   1 1.0 
        0.1005682367         0.0807265016
d   1 1.0 
        0.8000000000         1.9292013661

 11 0
s   6 1.0 
    13575.3496820000         0.5435905310
     2035.2333680000         1.0145543947
      463.2256235900         1.7315731970
      131.2001959800         2.6910376290
       42.8530158910         3.6044547126
       15.5841857660         3.7025556986
s   2 1.0 
        6.2067138508         1.8383540830
        2.5764896527         0.5447575605
s   1 1.0 
        0.5769633942         0.4718145038
s   1 1.0 
        0.2297283136         0.2364944676
s   1 1.0 
        0.0951644400         0.1221141848
p   4 1.0 
       34.6972322440         1.3596651510
        7.9582622826         1.4512589489
        2.3780826883         1.2709231421
        0.8143320818         0.8025721189
p   1 1.0 
        0.2888754725         0.3018758868
p   1 1.0 
        0.1005682367         0.0807265016
d   1 1.0 
        0.8000000000         1.9292013661

 12 0
s   6 1.0 
    13575.3496820000         0.5435905310
     2035.2333680000         1.0145543947
      463.2256235900         1.7315731970
      131.2001959800         2.6910376290
       42.8530158910         3.6044547126
       15.5841857660         3.7025556986
s   2 1.0 
        6.2067138508         1.8383540830
        2.5764896527         0.5447575605
s   1 1.0 
        0.5769633942         0.4718145038
s   1 1.0 
        0.2297283136         0.2364944676
s   1 1.0 
        0.0951644400         0.1221141848
p   4 1.0 
       34.6972322440         1.3596651510
        7.9582622826         1.4512589489
        2.3780826883         1.2709231421
        0.8143320818         0.8025721189
p   1 1.0 
        0.2888754725         0.3018758868
p   1 1.0 
        0.1005682367         0.0807265016
d   1 1.0 
        0.8000000000         1.9292013661

 13 0
s   6 1.0 
    27032.3826310000         0.8598581479
     4052.3871392000         1.6055305368
      922.3272271000         2.7458778516
      261.2407098900         4.2987674426
       85.3546413510         5.8797663284
       31.0350352450         6.3163983216
s   2 1.0 
       12.2608607280         2.9812147522
        4.9987076005         0.9419559635
s   1 1.0 
        1.1703108158         0.8019291610
s   1 1.0 
        0.4647474099         0.4011648062
s   1 1.0 
        0.1850453636         0.2010799406
p   4 1.0 
       63.2749548010         3.0572017144
       14.6270493790         3.3844839414
        4.4501223456         2.9474262132
        1.5275799647         1.7118271494
p   1 1.0 
        0.5293511794         0.6436057926
p   1 1.0 
        0.1747842127         0.1610897254
d   1 1.0 
        1.2000000000         3.9222679946
d   1 1.0 
        0.2000000000         0.1705189210

 14 0
s   6 1.0 
    27032.3826310000         0.8598581479
     4052.3871392000         1.6055305368
      922.3272271000         2.7458778516
      261.2407098900         4.2987674426
       85.3546413510         5.8797663284
       31.0350352450         6.3163983216
s   2 1.0 
       12.2608607280         2.9812147522
        4.9987076005         0.9419559635
s   1 1.0 
        1.1703108158         0.8019291610
s   1 1.0 
        0.4647474099         0.4011648062
s   1 1.0 
        0.1850453636         0.2010799406
p   4 1.0 
       63.2749548010         3.0572017144
       14.6270493790         3.3844839414
        4.4501223456         2.9474262132
        1.5275799647         1.7118271494
p   1 1.0 
        0.5293511794         0.6436057926
p   1 1.0 
        0.1747842127         0.1610897254
d   1 1.0 
        1.2000000000         3.9222679946
d   1 1.0 
        0.2000000000         0.1705189210

 15 0
s   3 1.0 
       18.7354104400         0.2149136950
        2.8256504000         0.3645880840
        0.6401347000         0.4150643621
s   1 1.0 
        0.1756074600         0.1933380407
p   1 1.0 
        1.0000000000         1.4254109407

 16 0
s   3 1.0 
       18.7354104400         0.2149136950
        2.8256504000         0.3645880840
        0.6401347000         0.4150643621
s   1 1.0 
        0.1756074600         0.1933380407
p   1 1.0 
        1.0000000000         1.4254109407

 17 0
s   3 1.0 
       18.7354104400         0.2149136950
        2.8256504000         0.3645880840
        0.6401347000         0.4150643621
s   1 1.0 
        0.1756074600         0.1933380407
p   1 1.0 
        1.0000000000         1.4254109407

 18 0
s   3 1.0 
       18.7354104400         0.2149136950
        2.8256504000         0.3645880840
        0.6401347000         0.4150643621
s   1 1.0 
        0.1756074600         0.1933380407
p   1 1.0 
        1.0000000000         1.4254109407

 19 0
s   3 1.0 
       18.7354104400         0.2149136950
        2.8256504000         0.3645880840
        0.6401347000         0.4150643621
s   1 1.0 
        0.1756074600         0.1933380407
p   1 1.0 
        1.0000000000         1.4254109407

 20 0
s   3 1.0 
       18.7354104400         0.2149136950
        2.8256504000         0.3645880840
        0.6401347000         0.4150643621
s   1 1.0 
        0.1756074600         0.1933380407
p   1 1.0 
        1.0000000000         1.4254109407

 21 0
s   3 1.0 
       18.7354104400         0.2149136950
        2.8256504000         0.3645880840
        0.6401347000         0.4150643621
s   1 1.0 
        0.1756074600         0.1933380407
p   1 1.0 
        1.0000000000         1.4254109407

 22 0
s   3 1.0 
       18.7354104400         0.2149136950
        2.8256504000         0.3645880840
        0.6401347000         0.4150643621
s   1 1.0 
        0.1756074600         0.1933380407
p   1 1.0 
        1.0000000000         1.4254109407

[5D]
[7F]
[9G]
[MO]
 Sym=     1a
 Ene= -1.89890846073478E+01
 Spin= Alpha
 Occup= 2.000000
  1      -0.000000083319
  2       0.000000437128
  3       0.000000022646
  4      -0.000040232451
  5       0.001314350601
  6      -0.000001802239
  7       0.000009315952
  8      -0.000001772012
  9      -0.000013813903
 10      -0.000049828515
 11       0.000011236555
 12      -0.000020271731
 13      -0.000224999274
 14       0.000046163184
 15      -0.000007189510
 16      -0.000002741488
 17      -0.000004684416
 18      -0.000005605206
 19       0.000010450721
 20       0.000045122230
 21       0.000007071749
 22       0.000019911114
 23       0.000013218377
 24      -0.000008016760
 25       0.000001961554
 26      -0.000009683951
 27       0.000101953039
 28      -0.000512289712
 29      -0.005415581862
 30       0.000009423632
 31      -0.000008802302
 32       0.000001096404
 33      -0.000088392640
 34       0.000112906620
 35      -0.000015956425
 36      -0.001464144006
 37       0.001216732115
 38      -0.000128986997
 39      -0.000008476612
 40      -0.000000897885
 41       0.000001114106
 42       0.000016985459
 43      -0.000007693276
 44      -0.000001385643
 45       0.000006733552
 46      -0.000024091236
 47      -0.000109900698
 48      -0.005075697816
 49      -0.000010131461
 50       0.000004782526
 51      -0.000000224000
 52       0.000042345053
 53       0.000072500284
 54      -0.000017604662
 55      -0.000505728785
 56       0.007453012078
 57      -0.001447937748
 58       0.000006043343
 59       0.000008482903
 60       0.000001194131
 61      -0.000017407532
 62      -0.000031369488
 63      -0.000002823369
 64       0.000014031804
 65      -0.000134191083
 66       0.000810681357
 67       0.003620118738
 68       0.000011159799
 69       0.000004981489
 70      -0.000001884894
 71      -0.000059082964
 72       0.000112186763
 73      -0.000017750834
 74      -0.001396451069
 75      -0.000277326156
 76       0.000163846809
 77      -0.000003837173
 78      -0.000001497450
 79      -0.000000237602
 80       0.000006548781
 81       0.000002401038
 82      -0.000001778635
 83       0.000010645740
 84      -0.000110222946
 85       0.000542303179
 86      -0.001796647217
 87       0.000013048645
 88       0.000007132343
 89      -0.000002478082
 90      -0.000078928610
 91      -0.000048784705
 92       0.000016045146
 93       0.001238348216
 94       0.000831802360
 95      -0.000262829338
 96      -0.000005088590
 97      -0.000002089368
 98      -0.000002727705
 99      -0.000001154407
100       0.000007121474
101       0.000133564156
102       0.000049496810
103       0.000099031213
104       0.000157791431
105      -0.000208990832
106       0.000000812916
107      -0.000004042417
108       0.000044341188
109      -0.000218305217
110      -0.001467840809
111      -0.000000831011
112      -0.000008295645
113       0.000001727305
114       0.000000258221
115       0.000106454219
116      -0.000021376333
117      -0.000091078563
118       0.000456768415
119      -0.000084259427
120      -0.000003775403
121       0.000000846647
122      -0.000000598437
123       0.000000909608
124      -0.000007009172
125       0.000000487380
126      -0.000002412745
127       0.000025857331
128      -0.000080503658
129       0.001464184082
130       0.000003771325
131       0.000002452684
132      -0.000000785337
133      -0.000037289469
134       0.000019225904
135      -0.000000950813
136      -0.000672570440
137       0.000184340927
138       0.000015564301
139       0.000001391140
140       0.000001143112
141       0.000001400959
142       0.000002109502
143      -0.000005458200
144       0.000000650966
145      -0.000003107575
146      -0.000005855680
147       0.000169083179
148      -0.003615306659
149      -0.000008856018
150      -0.000007496296
151       0.000002168178
152      -0.000030856506
153       0.000003708430
154       0.000001752420
155       0.001403608934
156       0.000143038119
157      -0.000138104990
158      -0.000007888439
159      -0.000003338377
160      -0.000001236976
161       0.000010713289
162       0.000006992359
163      -0.000000663106
164       0.000003224561
165      -0.000026612106
166       0.000010902986
167       0.002556813572
168       0.000035759671
169       0.000005219190
170      -0.000003769539
171      -0.000219074414
172      -0.000073230628
173       0.000031433189
174       0.002148429634
175       0.000819903145
176      -0.000330351419
177      -0.000001315358
178       0.000000159731
179      -0.000003830813
180      -0.000014657778
181       0.000003682196
182       0.000004124888
183      -0.000019882243
184       0.000026890165
185       0.000716612396
186      -0.004800862078
187      -0.000033068134
188      -0.000097210941
189       0.000022023994
190      -0.000148487128
191       0.000300606150
192      -0.000048453182
193       0.009819664583
194       0.001437783315
195      -0.001065416454
196      -0.000007854330
197      -0.000007809466
198      -0.000002500807
199       0.000013340238
200       0.000028390226
201       0.000007594953
202      -0.000038539239
203       0.000423931251
204      -0.000956095413
205       0.018258363041
206       0.000031992451
207      -0.000058134858
208       0.000008763795
209      -0.000401817473
210       0.000002624364
211       0.000032666386
212       0.006173134524
213      -0.003289570349
214       0.000152221671
215       0.000080603933
216      -0.000001115569
217       0.000031338715
218       0.000034605555
219       0.000051761751
220       0.000028007864
221      -0.000146824621
222       0.000363573149
223      -0.001275905173
224      -0.008694665649
225       0.000180047979
226      -0.000226487653
227       0.000029857684
228      -0.000468251112
229      -0.000367118629
230       0.000110914806
231      -0.005326718093
232       0.001203005615
233       0.000198502159
234      -0.000256557456
235       0.000033670112
236      -0.000103226302
237      -0.000180906562
238      -0.000287333759
239      -0.000006816941
240       0.000003266609
241      -0.000125108060
242       0.000799381654
243      -0.002504238295
244       0.000080522579
245      -0.000018431817
246      -0.000003022004
247      -0.000264771405
248      -0.000002243778
249       0.000022406760
250      -0.000427940426
251       0.000731764229
252      -0.000110589425
253       0.000053627234
254       0.000006298491
255       0.000011146897
256      -0.000030892694
257       0.000020472009
258       0.000233354142
259      -0.000095902525
260       0.000001881570
261      -0.000099480016
262       0.000689648170
263       0.435522594979
264       0.639188818173
265       0.034487792813
266      -0.023201367824
267       0.017556758517
268      -0.001638707727
269       0.000246484817
270       0.000086232535
271       0.001930379528
272      -0.000702161733
273      -0.000020358108
274      -0.002911829115
275       0.002642035686
276      -0.000281536355
277       0.000178538451
278       0.000018608787
279       0.000076576160
280       0.000067633574
281       0.000013201253
282      -0.000528136636
283       0.000021667055
284      -0.000196572566
285      -0.000218243588
286      -0.000413370169
287      -0.000036023362
288       0.000686094366
289       0.000032215851
290      -0.000000809742
291      -0.000002418231
292       0.000611209613
293      -0.001703084643
294       0.000142336408
295       0.000189236955
296      -0.000048965166
297       0.000164571024
298      -0.001225226403
299      -0.000000805129
300      -0.000016480991
301       0.000003313285
302       0.000007633584
303      -0.000307502017
304      -0.000012635264
305       0.000007766453
306      -0.000000559907
307      -0.000004752110
308      -0.000082127497
309       0.000003016586
310       0.000005371265
311      -0.000001300141
312       0.000003527716
313       0.000056992975
314      -0.000001042575
315      -0.000004637011
316       0.000001000165
317       0.000011594995
318      -0.000102584048
319       0.000002071218
320      -0.000007280632
321       0.000001309219
322      -0.000011437338
323       0.000156754684
324      -0.000008739592
325      -0.000018092198
326       0.000004305276
 Sym=     1a
 Ene= -1.89271208497576E+01
 Spin= Alpha
 Occup= 2.000000
  1      -0.000000725426
  2       0.000004315218
  3      -0.000046152840
  4       0.000149521287
  5      -0.000075096293
  6       0.000002613391
  7       0.000007059950
  8      -0.000001588979
  9      -0.000024348521
 10      -0.000045816219
 11       0.000010935896
 12       0.000071155965
 13      -0.000264421033
 14       0.000048109042
 15      -0.000004463558
 16      -0.000001591284
 17      -0.000001713024
 18       0.000001184925
 19       0.000004305900
 20       0.000002757397
 21       0.000013377860
 22      -0.000028331949
 23      -0.000144483405
 24      -0.000010648860
 25      -0.000001050548
 26       0.000005032973
 27      -0.000008378364
 28      -0.000145960009
 29      -0.001952079994
 30       0.000014371603
 31      -0.000006060441
 32       0.000000072323
 33      -0.000115083082
 34       0.000126346945
 35      -0.000016314740
 36       0.000172909184
 37       0.000855097373
 38      -0.000184781383
 39       0.000005068890
 40       0.000001876842
 41       0.000006183601
 42       0.000016072660
 43      -0.000011856556
 44       0.000000237470
 45      -0.000001283259
 46       0.000065153745
 47      -0.000554336397
 48      -0.001357176847
 49       0.000020419755
 50      -0.000025196590
 51       0.000003278197
 52      -0.000193009791
 53       0.000275057410
 54      -0.000039176172
 55      -0.000920957244
 56       0.002119540732
 57      -0.000352251831
 58       0.000016449830
 59       0.000006587191
 60       0.000002266855
 61      -0.000022584408
 62      -0.000012855834
 63      -0.000001967856
 64       0.000010027266
 65      -0.000157169668
 66       0.000908246022
 67       0.000758210092
 68       0.000018455809
 69      -0.000007534919
 70       0.000000119110
 71      -0.000281292100
 72       0.000096146479
 73       0.000002414681
 74      -0.000393225692
 75       0.000907314395
 76      -0.000149256819
 77      -0.000015028400
 78      -0.000006903477
 79      -0.000002673548
 80       0.000019985406
 81       0.000016529878
 82      -0.000000657163
 83       0.000003924326
 84      -0.000037040144
 85       0.000228116599
 86      -0.001209902579
 87       0.000001350249
 88      -0.000000213640
 89      -0.000000123737
 90      -0.000001845708
 91       0.000000882741
 92       0.000000239656
 93       0.000752054317
 94       0.000662848897
 95      -0.000192206935
 96       0.000002331690
 97      -0.000000081270
 98       0.000000919367
 99       0.000001162300
100       0.000001480560
101       0.000070291019
102       0.000037247366
103       0.000029760096
104      -0.000030428461
105      -0.000122174283
106      -0.000000112493
107       0.000000531525
108      -0.000001989826
109       0.000035633948
110      -0.001498286831
111      -0.000001507281
112      -0.000001215102
113       0.000000342292
114       0.000024318512
115       0.000014883465
116      -0.000004866166
117      -0.000014016555
118       0.000537731126
119      -0.000106354057
120      -0.000001574129
121       0.000000802333
122      -0.000000824062
123      -0.000002807919
124      -0.000003878213
125       0.000000355318
126      -0.000001767635
127       0.000024164879
128      -0.000112018785
129       0.001694343770
130       0.000003628773
131       0.000001804238
132      -0.000000646561
133      -0.000015732648
134      -0.000018608370
135       0.000004948391
136      -0.000633805942
137      -0.000017555571
138       0.000052731258
139       0.000003215060
140       0.000000489344
141       0.000000760806
142      -0.000001758842
143       0.000000502296
144      -0.000000096470
145       0.000000517058
146      -0.000024920219
147       0.000183698730
148      -0.002458687071
149      -0.000006361998
150       0.000000302234
151       0.000000413802
152      -0.000004173765
153      -0.000030822482
154       0.000006580585
155       0.000850034425
156      -0.000227520894
157      -0.000020646277
158      -0.000004825835
159      -0.000001366132
160      -0.000000581206
161       0.000006164455
162       0.000001062952
163       0.000000166973
164      -0.000000803947
165      -0.000000909754
166       0.000004899033
167       0.002426663618
168       0.000014316249
169       0.000004796956
170      -0.000002025199
171      -0.000130413388
172      -0.000016339362
173       0.000013212294
174       0.000636968740
175       0.000623383424
176      -0.000174470217
177      -0.000003455741
178       0.000001164929
179      -0.000002648181
180      -0.000008646111
181      -0.000004927507
182      -0.000000004919
183      -0.000000328685
184       0.000068190649
185      -0.000343710887
186      -0.002931805182
187      -0.000030356017
188      -0.000030720408
189       0.000008560840
190       0.000617070024
191       0.000190621387
192      -0.000087651307
193       0.004670362784
194       0.001425970324
195      -0.000653854628
196       0.000045721058
197       0.000018197984
198       0.000003469624
199      -0.000075007475
200      -0.000027978399
201       0.000004195818
202      -0.000021669551
203       0.000138308536
204       0.000591138246
205       0.010924754122
206      -0.000150393955
207       0.000022007306
208       0.000007769513
209       0.000907630778
210      -0.000460023273
211       0.000018252126
212      -0.000250009029
213      -0.001641280284
214       0.000346298095
215       0.000010084688
216       0.000007143804
217      -0.000001191593
218      -0.000029648940
219      -0.000014930294
220       0.000020452910
221      -0.000114511589
222       0.001093180711
223      -0.004108514531
224      -0.009290013935
225      -0.000428044299