22
	Energy:      55.7159659
N         -1.02797        1.41067       -0.00425
C         -2.04446        0.54257        0.21596
C         -1.55666       -0.76550        0.29015
C         -0.19605       -0.65221        0.10476
C          0.09150        0.67119       -0.06994
C          1.39771        1.10035       -0.28133
C          2.40327        0.11812       -0.30718
C          2.06312       -1.24226       -0.12191
N          0.76201       -1.61269        0.08271
C         -2.31253       -2.01728        0.51712
C         -3.64537       -2.03300        0.68880
C         -4.39982       -3.28266        0.91537
O         -5.61122       -3.23097        1.06452
O         -3.76846       -4.47586        0.95926
H         -4.21033       -1.10729        0.66433
H         -1.10415        2.44740       -0.10265
H          1.63103        2.14805       -0.42036
H          3.43470        0.40361       -0.46853
H         -4.25664       -5.29844        1.10732
H         -1.75415       -2.94893        0.54305
H         -3.07627        0.84987        0.31554
H          2.83800       -1.99675       -0.14208
