[Molden Format]
[Title]
 Molden file created by orca_2mkl for BaseName=LUMO

[Atoms] AU
N    1   7         -1.9583816273         2.7047501973        -0.0083119471 
C    2   6         -3.9343362236         1.0801109763         0.4140270243 
C    3   6         -3.0578899228        -1.3790459154         0.5584794302 
C    4   6         -0.3625343928        -1.2251255188         0.1976425562 
C    5   6          0.2649709762         1.3562352520        -0.1523068452 
C    6   6          2.7515020001         2.0824744067        -0.5471231003 
C    7   6          4.5116207631         0.1365682812        -0.5693634788 
C    8   6          3.7323630975        -2.3754943892        -0.2068110905 
N    9   7          1.3480217638        -3.0879679528         0.1732493552 
C   10   6         -4.4399596872        -3.6815030413         0.9748028895 
C   11   6         -6.9557377319        -3.8830106253         1.3109600944 
C   12   6         -8.2756962744        -6.2673848597         1.7298717431 
O   13   8        -10.5474616166        -6.4449920626         2.0382685629 
O   14   8         -6.7315105213        -8.3327812798         1.7495880729 
H   15   1         -8.2010881403        -2.2509706789         1.2944284924 
H   16   1         -2.1235546951         4.5908614443        -0.1841308600 
H   17   1          3.3018851475         4.0412423644        -0.8225090455 
H   18   1          6.4999798429         0.5407215449        -0.8665789194 
H   19   1         -7.8298425360        -9.7682771264         2.0409969470 
H   20   1         -3.2901710143        -5.3853153207         1.0104450618 
H   21   1         -5.8398710066         1.7976758416         0.5828838562 
H   22   1          5.1365798502        -3.8801269157        -0.2292815368 
[GTO]
  1 0
s   6 1.0 
    19730.8006470000         0.6956035199
     2957.8958745000         1.2986099328
      673.2213359500         2.2190880635
      190.6824949400         3.4636607549
       62.2954418980         4.6967555531
       22.6541611820         4.9522510945
s   2 1.0 
        8.9791477428         2.3880677979
        3.6863002370         0.7337878750
s   1 1.0 
        0.8466007680         0.6290267082
s   1 1.0 
        0.3364713377         0.3148626514
s   1 1.0 
        0.1364765368         0.1600308040
p   4 1.0 
       49.2003805100         2.1264813968
       11.3467905370         2.3279367185
        3.4273972411         2.0485729192
        1.1785525134         1.2607319854
p   1 1.0 
        0.4164220497         0.4768230427
p   1 1.0 
        0.1426082601         0.1249168256
d   1 1.0 
        1.1000000000         3.3682729889
d   1 1.0 
        0.2000000000         0.1705189210

  2 0
s   6 1.0 
    13575.3496820000         0.5435905310
     2035.2333680000         1.0145543947
      463.2256235900         1.7315731970
      131.2001959800         2.6910376290
       42.8530158910         3.6044547126
       15.5841857660         3.7025556986
s   2 1.0 
        6.2067138508         1.8383540830
        2.5764896527         0.5447575605
s   1 1.0 
        0.5769633942         0.4718145038
s   1 1.0 
        0.2297283136         0.2364944676
s   1 1.0 
        0.0951644400         0.1221141848
p   4 1.0 
       34.6972322440         1.3596651510
        7.9582622826         1.4512589489
        2.3780826883         1.2709231421
        0.8143320818         0.8025721189
p   1 1.0 
        0.2888754725         0.3018758868
p   1 1.0 
        0.1005682367         0.0807265016
d   1 1.0 
        0.8000000000         1.9292013661

  3 0
s   6 1.0 
    13575.3496820000         0.5435905310
     2035.2333680000         1.0145543947
      463.2256235900         1.7315731970
      131.2001959800         2.6910376290
       42.8530158910         3.6044547126
       15.5841857660         3.7025556986
s   2 1.0 
        6.2067138508         1.8383540830
        2.5764896527         0.5447575605
s   1 1.0 
        0.5769633942         0.4718145038
s   1 1.0 
        0.2297283136         0.2364944676
s   1 1.0 
        0.0951644400         0.1221141848
p   4 1.0 
       34.6972322440         1.3596651510
        7.9582622826         1.4512589489
        2.3780826883         1.2709231421
        0.8143320818         0.8025721189
p   1 1.0 
        0.2888754725         0.3018758868
p   1 1.0 
        0.1005682367         0.0807265016
d   1 1.0 
        0.8000000000         1.9292013661

  4 0
s   6 1.0 
    13575.3496820000         0.5435905310
     2035.2333680000         1.0145543947
      463.2256235900         1.7315731970
      131.2001959800         2.6910376290
       42.8530158910         3.6044547126
       15.5841857660         3.7025556986
s   2 1.0 
        6.2067138508         1.8383540830
        2.5764896527         0.5447575605
s   1 1.0 
        0.5769633942         0.4718145038
s   1 1.0 
        0.2297283136         0.2364944676
s   1 1.0 
        0.0951644400         0.1221141848
p   4 1.0 
       34.6972322440         1.3596651510
        7.9582622826         1.4512589489
        2.3780826883         1.2709231421
        0.8143320818         0.8025721189
p   1 1.0 
        0.2888754725         0.3018758868
p   1 1.0 
        0.1005682367         0.0807265016
d   1 1.0 
        0.8000000000         1.9292013661

  5 0
s   6 1.0 
    13575.3496820000         0.5435905310
     2035.2333680000         1.0145543947
      463.2256235900         1.7315731970
      131.2001959800         2.6910376290
       42.8530158910         3.6044547126
       15.5841857660         3.7025556986
s   2 1.0 
        6.2067138508         1.8383540830
        2.5764896527         0.5447575605
s   1 1.0 
        0.5769633942         0.4718145038
s   1 1.0 
        0.2297283136         0.2364944676
s   1 1.0 
        0.0951644400         0.1221141848
p   4 1.0 
       34.6972322440         1.3596651510
        7.9582622826         1.4512589489
        2.3780826883         1.2709231421
        0.8143320818         0.8025721189
p   1 1.0 
        0.2888754725         0.3018758868
p   1 1.0 
        0.1005682367         0.0807265016
d   1 1.0 
        0.8000000000         1.9292013661

  6 0
s   6 1.0 
    13575.3496820000         0.5435905310
     2035.2333680000         1.0145543947
      463.2256235900         1.7315731970
      131.2001959800         2.6910376290
       42.8530158910         3.6044547126
       15.5841857660         3.7025556986
s   2 1.0 
        6.2067138508         1.8383540830
        2.5764896527         0.5447575605
s   1 1.0 
        0.5769633942         0.4718145038
s   1 1.0 
        0.2297283136         0.2364944676
s   1 1.0 
        0.0951644400         0.1221141848
p   4 1.0 
       34.6972322440         1.3596651510
        7.9582622826         1.4512589489
        2.3780826883         1.2709231421
        0.8143320818         0.8025721189
p   1 1.0 
        0.2888754725         0.3018758868
p   1 1.0 
        0.1005682367         0.0807265016
d   1 1.0 
        0.8000000000         1.9292013661

  7 0
s   6 1.0 
    13575.3496820000         0.5435905310
     2035.2333680000         1.0145543947
      463.2256235900         1.7315731970
      131.2001959800         2.6910376290
       42.8530158910         3.6044547126
       15.5841857660         3.7025556986
s   2 1.0 
        6.2067138508         1.8383540830
        2.5764896527         0.5447575605
s   1 1.0 
        0.5769633942         0.4718145038
s   1 1.0 
        0.2297283136         0.2364944676
s   1 1.0 
        0.0951644400         0.1221141848
p   4 1.0 
       34.6972322440         1.3596651510
        7.9582622826         1.4512589489
        2.3780826883         1.2709231421
        0.8143320818         0.8025721189
p   1 1.0 
        0.2888754725         0.3018758868
p   1 1.0 
        0.1005682367         0.0807265016
d   1 1.0 
        0.8000000000         1.9292013661

  8 0
s   6 1.0 
    13575.3496820000         0.5435905310
     2035.2333680000         1.0145543947
      463.2256235900         1.7315731970
      131.2001959800         2.6910376290
       42.8530158910         3.6044547126
       15.5841857660         3.7025556986
s   2 1.0 
        6.2067138508         1.8383540830
        2.5764896527         0.5447575605
s   1 1.0 
        0.5769633942         0.4718145038
s   1 1.0 
        0.2297283136         0.2364944676
s   1 1.0 
        0.0951644400         0.1221141848
p   4 1.0 
       34.6972322440         1.3596651510
        7.9582622826         1.4512589489
        2.3780826883         1.2709231421
        0.8143320818         0.8025721189
p   1 1.0 
        0.2888754725         0.3018758868
p   1 1.0 
        0.1005682367         0.0807265016
d   1 1.0 
        0.8000000000         1.9292013661

  9 0
s   6 1.0 
    19730.8006470000         0.6956035199
     2957.8958745000         1.2986099328
      673.2213359500         2.2190880635
      190.6824949400         3.4636607549
       62.2954418980         4.6967555531
       22.6541611820         4.9522510945
s   2 1.0 
        8.9791477428         2.3880677979
        3.6863002370         0.7337878750
s   1 1.0 
        0.8466007680         0.6290267082
s   1 1.0 
        0.3364713377         0.3148626514
s   1 1.0 
        0.1364765368         0.1600308040
p   4 1.0 
       49.2003805100         2.1264813968
       11.3467905370         2.3279367185
        3.4273972411         2.0485729192
        1.1785525134         1.2607319854
p   1 1.0 
        0.4164220497         0.4768230427
p   1 1.0 
        0.1426082601         0.1249168256
d   1 1.0 
        1.1000000000         3.3682729889
d   1 1.0 
        0.2000000000         0.1705189210

 10 0
s   6 1.0 
    13575.3496820000         0.5435905310
     2035.2333680000         1.0145543947
      463.2256235900         1.7315731970
      131.2001959800         2.6910376290
       42.8530158910         3.6044547126
       15.5841857660         3.7025556986
s   2 1.0 
        6.2067138508         1.8383540830
        2.5764896527         0.5447575605
s   1 1.0 
        0.5769633942         0.4718145038
s   1 1.0 
        0.2297283136         0.2364944676
s   1 1.0 
        0.0951644400         0.1221141848
p   4 1.0 
       34.6972322440         1.3596651510
        7.9582622826         1.4512589489
        2.3780826883         1.2709231421
        0.8143320818         0.8025721189
p   1 1.0 
        0.2888754725         0.3018758868
p   1 1.0 
        0.1005682367         0.0807265016
d   1 1.0 
        0.8000000000         1.9292013661

 11 0
s   6 1.0 
    13575.3496820000         0.5435905310
     2035.2333680000         1.0145543947
      463.2256235900         1.7315731970
      131.2001959800         2.6910376290
       42.8530158910         3.6044547126
       15.5841857660         3.7025556986
s   2 1.0 
        6.2067138508         1.8383540830
        2.5764896527         0.5447575605
s   1 1.0 
        0.5769633942         0.4718145038
s   1 1.0 
        0.2297283136         0.2364944676
s   1 1.0 
        0.0951644400         0.1221141848
p   4 1.0 
       34.6972322440         1.3596651510
        7.9582622826         1.4512589489
        2.3780826883         1.2709231421
        0.8143320818         0.8025721189
p   1 1.0 
        0.2888754725         0.3018758868
p   1 1.0 
        0.1005682367         0.0807265016
d   1 1.0 
        0.8000000000         1.9292013661

 12 0
s   6 1.0 
    13575.3496820000         0.5435905310
     2035.2333680000         1.0145543947
      463.2256235900         1.7315731970
      131.2001959800         2.6910376290
       42.8530158910         3.6044547126
       15.5841857660         3.7025556986
s   2 1.0 
        6.2067138508         1.8383540830
        2.5764896527         0.5447575605
s   1 1.0 
        0.5769633942         0.4718145038
s   1 1.0 
        0.2297283136         0.2364944676
s   1 1.0 
        0.0951644400         0.1221141848
p   4 1.0 
       34.6972322440         1.3596651510
        7.9582622826         1.4512589489
        2.3780826883         1.2709231421
        0.8143320818         0.8025721189
p   1 1.0 
        0.2888754725         0.3018758868
p   1 1.0 
        0.1005682367         0.0807265016
d   1 1.0 
        0.8000000000         1.9292013661

 13 0
s   6 1.0 
    27032.3826310000         0.8598581479
     4052.3871392000         1.6055305368
      922.3272271000         2.7458778516
      261.2407098900         4.2987674426
       85.3546413510         5.8797663284
       31.0350352450         6.3163983216
s   2 1.0 
       12.2608607280         2.9812147522
        4.9987076005         0.9419559635
s   1 1.0 
        1.1703108158         0.8019291610
s   1 1.0 
        0.4647474099         0.4011648062
s   1 1.0 
        0.1850453636         0.2010799406
p   4 1.0 
       63.2749548010         3.0572017144
       14.6270493790         3.3844839414
        4.4501223456         2.9474262132
        1.5275799647         1.7118271494
p   1 1.0 
        0.5293511794         0.6436057926
p   1 1.0 
        0.1747842127         0.1610897254
d   1 1.0 
        1.2000000000         3.9222679946
d   1 1.0 
        0.2000000000         0.1705189210

 14 0
s   6 1.0 
    27032.3826310000         0.8598581479
     4052.3871392000         1.6055305368
      922.3272271000         2.7458778516
      261.2407098900         4.2987674426
       85.3546413510         5.8797663284
       31.0350352450         6.3163983216
s   2 1.0 
       12.2608607280         2.9812147522
        4.9987076005         0.9419559635
s   1 1.0 
        1.1703108158         0.8019291610
s   1 1.0 
        0.4647474099         0.4011648062
s   1 1.0 
        0.1850453636         0.2010799406
p   4 1.0 
       63.2749548010         3.0572017144
       14.6270493790         3.3844839414
        4.4501223456         2.9474262132
        1.5275799647         1.7118271494
p   1 1.0 
        0.5293511794         0.6436057926
p   1 1.0 
        0.1747842127         0.1610897254
d   1 1.0 
        1.2000000000         3.9222679946
d   1 1.0 
        0.2000000000         0.1705189210

 15 0
s   3 1.0 
       18.7354104400         0.2149136950
        2.8256504000         0.3645880840
        0.6401347000         0.4150643621
s   1 1.0 
        0.1756074600         0.1933380407
p   1 1.0 
        1.0000000000         1.4254109407

 16 0
s   3 1.0 
       18.7354104400         0.2149136950
        2.8256504000         0.3645880840
        0.6401347000         0.4150643621
s   1 1.0 
        0.1756074600         0.1933380407
p   1 1.0 
        1.0000000000         1.4254109407

 17 0
s   3 1.0 
       18.7354104400         0.2149136950
        2.8256504000         0.3645880840
        0.6401347000         0.4150643621
s   1 1.0 
        0.1756074600         0.1933380407
p   1 1.0 
        1.0000000000         1.4254109407

 18 0
s   3 1.0 
       18.7354104400         0.2149136950
        2.8256504000         0.3645880840
        0.6401347000         0.4150643621
s   1 1.0 
        0.1756074600         0.1933380407
p   1 1.0 
        1.0000000000         1.4254109407

 19 0
s   3 1.0 
       18.7354104400         0.2149136950
        2.8256504000         0.3645880840
        0.6401347000         0.4150643621
s   1 1.0 
        0.1756074600         0.1933380407
p   1 1.0 
        1.0000000000         1.4254109407

 20 0
s   3 1.0 
       18.7354104400         0.2149136950
        2.8256504000         0.3645880840
        0.6401347000         0.4150643621
s   1 1.0 
        0.1756074600         0.1933380407
p   1 1.0 
        1.0000000000         1.4254109407

 21 0
s   3 1.0 
       18.7354104400         0.2149136950
        2.8256504000         0.3645880840
        0.6401347000         0.4150643621
s   1 1.0 
        0.1756074600         0.1933380407
p   1 1.0 
        1.0000000000         1.4254109407

 22 0
s   3 1.0 
       18.7354104400         0.2149136950
        2.8256504000         0.3645880840
        0.6401347000         0.4150643621
s   1 1.0 
        0.1756074600         0.1933380407
p   1 1.0 
        1.0000000000         1.4254109407

[5D]
[7F]
[9G]
[MO]
 Sym=     1a
 Ene= -1.89848526690043E+01
 Spin= Alpha
 Occup= 2.000000
  1       0.000000846481
  2      -0.000005066352
  3       0.000061348682
  4      -0.000343023859
  5       0.000610519034
  6       0.000004220368
  7      -0.000007688277
  8       0.000000288876
  9      -0.000000701215
 10       0.000043105176
 11      -0.000004511306
 12       0.001108492027
 13      -0.000476890792
 14      -0.000091674594
 15       0.000009663003
 16       0.000001948142
 17       0.000003791422
 18       0.000009005072
 19      -0.000008375281
 20      -0.000173639572
 21      -0.000004858288
 22      -0.000014918287
 23      -0.000098150322
 24      -0.000206833961
 25      -0.000001503226
 26       0.000007475746
 27      -0.000091860068
 28       0.000508496141
 29       0.004534646248
 30      -0.000014785643
 31      -0.000003145155
 32       0.000002265102
 33       0.000142278209
 34      -0.000028570871
 35      -0.000015327480
 36       0.001609376399
 37      -0.000532780218
 38      -0.000152182963
 39       0.000003064751
 40       0.000002174491
 41      -0.000001914901
 42      -0.000016643074
 43       0.000006095815
 44       0.000000939923
 45      -0.000004499028
 46       0.000005444892
 47       0.000134070884
 48       0.001897715495
 49       0.000008874282
 50       0.000003779038
 51      -0.000001503097
 52      -0.000104307888
 53      -0.000149158056
 54       0.000028661570
 55       0.000417639373
 56      -0.005241355910
 57       0.000500095361
 58      -0.000004514966
 59      -0.000004397721
 60      -0.000004428678
 61       0.000002544095
 62       0.000029074194
 63      -0.000000661569
 64       0.000003345963
 65      -0.000078735137
 66       0.000831950275
 67      -0.003101872539
 68      -0.000016811635
 69      -0.000030410536
 70       0.000005523849
 71       0.000132272189
 72       0.000253575830
 73      -0.000044361852
 74       0.000451409773
 75      -0.002441960308
 76       0.000196994021
 77      -0.000000583510
 78       0.000001811832
 79      -0.000002640428
 80      -0.000018656951
 81       0.000004556464
 82       0.000001337500
 83      -0.000006867610
 84       0.000125311237
 85      -0.001003384211
 86       0.002473439931
 87      -0.000015899429
 88       0.000000694337
 89       0.000001837672
 90       0.000254261120
 91       0.000128055857
 92      -0.000045260818
 93      -0.000043789575
 94      -0.002433898494
 95       0.000258409775
 96       0.000015685104
 97       0.000001943672
 98       0.000006502617
 99       0.000021362576
100      -0.000010674610
101      -0.000000758868
102       0.000003741469
103      -0.000039772707
104       0.000139383865
105      -0.000985364248
106      -0.000006496917
107      -0.000004929140
108       0.000001364791
109       0.000068858672
110       0.000032045420
111      -0.000012310660
112      -0.000785986106
113       0.000959644294
114       0.000001310014
115      -0.000003240224
116       0.000000471447
117      -0.000001218478
118      -0.000007963633
119      -0.000001594408
120      -0.000000258738
121       0.000001286646
122      -0.000011399743
123       0.000041074457
124       0.001092495247
125      -0.000001129752
126       0.000000093500
127       0.000000134671
128       0.000009181667
129      -0.000034032442
130       0.000002370301
131      -0.000364379322
132       0.000590768979
133      -0.000015349548
134      -0.000001011494
135      -0.000000866799
136      -0.000000901475
137       0.000000154386
138       0.000005645490
139      -0.000001137974
140       0.000005576853
141      -0.000036860431
142      -0.000108749997
143      -0.000150794174
144       0.000009618684
145       0.000008689626
146      -0.000002199248
147       0.000021586311
148      -0.000047050494
149       0.000002527608
150       0.000358983194
151       0.000176349343
152      -0.000064414036
153       0.000001158577
154       0.000000687152
155      -0.000000336648
156      -0.000004309101
157       0.000000498689
158       0.000000342039
159      -0.000002037956
160       0.000001721547
161       0.000119730436
162      -0.001200506167
163      -0.000013366260
164      -0.000015278173
165       0.000003396610
166       0.000027212626
167       0.000079745558
168      -0.000012130762
169       0.000657588623
170      -0.000568341598
171      -0.000024213445
172       0.000006804751
173       0.000002876069
174       0.000003606097
175       0.000003013394
176      -0.000015190224
177      -0.000004749805
178      -0.000037735950
179      -0.000024403963
180       0.000076968468
181       0.000240765115
182      -0.000004243961
183       0.000020458274
184      -0.000031932843
185      -0.000688785976
186       0.007139843985
187       0.000027132472
188       0.000101884819
189      -0.000014173575
190       0.000148016826
191      -0.000331932295
192       0.000016915574
193      -0.008646403876
194      -0.001318897478
195       0.001220231782
196       0.000011725435
197       0.000007145225
198       0.000005976874
199      -0.000006358205
200      -0.000033758984
201      -0.000007553039
202       0.000038363543
203      -0.000425480373
204       0.000995238593
205      -0.018017792458
206      -0.000036095299
207       0.000064638217
208      -0.000002021644
209       0.000398947039
210      -0.000036863148
211      -0.000047446130
212      -0.006343745278
213       0.002791922261
214       0.000502736164
215      -0.000081443884
216      -0.000008822557
217      -0.000012183337
218      -0.000033771721
219      -0.000049589989
220      -0.000028066889
221       0.000147427511
222      -0.000375422724
223       0.001328764729
224       0.008730464397
225      -0.000193662788
226       0.000221649858
227       0.000001391261
228       0.000375381023
229       0.000387327098
230      -0.000088139790
231       0.005458748364
232      -0.000897365908
233      -0.000600682471
234       0.000270111954
235       0.000008341673
236       0.000026606133
237       0.000154757456
238       0.000306692843
239       0.000007277076
240      -0.000003001373
241       0.000128405724
242      -0.000808311220
243       0.002472469183
244      -0.000080303337
245       0.000013243034
246       0.000008960948
247       0.000254927315
248       0.000019858172
249      -0.000035033866
250       0.000416044190
251      -0.000719181599
252       0.000023228973
253      -0.000053654548
254      -0.000014364303
255      -0.000004659132
256       0.000031076075
257      -0.000017186285
258      -0.000220691100
259       0.000003290450
260       0.000065498052
261       0.000163462491
262      -0.000681673346
263      -0.435522290861
264      -0.639189550342
265      -0.034482942849
266       0.023178811842
267      -0.017534447518
268       0.001660009067
269      -0.000138803497
270      -0.000198082592
271      -0.001984828484
272       0.000573042724
273       0.000194412675
274       0.003109232373
275      -0.002437907011
276      -0.000143244282
277      -0.000185492294
278      -0.000029957663
279      -0.000039100479
280      -0.000074095413
281      -0.000025190301
282       0.000525468639
283       0.000046086182
284       0.000052755034
285       0.000168359807
286       0.000475522823
287       0.000043071456
288      -0.000651912705
289      -0.000027127514
290      -0.000007546872
291       0.000004268814
292      -0.000043073864
293       0.000130089255
294       0.000002963187
295      -0.000015101554
296       0.000001075050
297      -0.000002776308
298      -0.000168612294
299       0.000002841319
300       0.000008162903
301      -0.000001243858
302      -0.000004646209
303       0.000009547095
304       0.000000445161
305      -0.000000491181
306       0.000000005398
307      -0.000618247164
308       0.001676073157
309      -0.000127907462
310      -0.000201986849
311       0.000037438877
312      -0.000163301793
313       0.001140139260
314       0.000007588457
315       0.000018396721
316      -0.000002816685
317      -0.000005229708
318       0.000343058218
319       0.000012779206
320      -0.000013485764
321      -0.000000122970
322      -0.000008554447
323      -0.000014131329
324       0.000001392040
325      -0.000000616481
326      -0.000000133851
 Sym=     1a
 Ene= -1.89239130312119E+01
 Spin= Alpha
 Occup= 2.000000
  1       0.000000858660
  2      -0.000005150507
  3       0.000060050083
  4      -0.000247805643
  5       0.000558387131
  6      -0.000002156134
  7       0.000001222576
  8       0.000000149939
  9       0.000011266622
 10       0.000001298161
 11      -0.000001577706
 12      -0.000423262578
 13       0.000058936348
 14       0.000048094985
 15       0.000008037275
 16       0.000002102134
 17       0.000001771362
 18      -0.000000043283
 19      -0.000002379747
 20      -0.000043943540
 21      -0.000029134285
 22      -0.000019266729
 23       0.000043918148
 24       0.000122243680
 25       0.000000852753
 26      -0.000004081026
 27       0.000000449750
 28       0.000018070178
 29      -0.000223344991
 30      -0.000011587369
 31      -0.000003969642
 32       0.000001931624
 33       0.000043688466
 34      -0.000114974542
 35       0.000006261345
 36      -0.000909478038
 37      -0.000502403822
 38       0.000167362455
 39      -0.000010220673
 40      -0.000000721325
 41      -0.000002941783
 42      -0.000011727666
 43      -0.000001079647
 44      -0.000000448393
 45       0.000002366373
 46      -0.000071828489
 47       0.000513009838
 48       0.002067384157
 49      -0.000025239651
 50       0.000025210345
 51       0.000000572313
 52       0.000195586991
 53      -0.000282591064
 54       0.000004480658
 55       0.001647659417
 56      -0.000303152314
 57      -0.000174107581
 58      -0.000014440146
 59      -0.000006514057
 60      -0.000002782710
 61       0.000015110109
 62       0.000011964462
 63       0.000000526379
 64      -0.000002844350
 65       0.000070770986
 66      -0.000396526211
 67      -0.004117107440
 68      -0.000016614278
 69      -0.000021062486
 70       0.000004478370
 71       0.000237008325
 72       0.000182554612
 73      -0.000050112598
 74       0.000337119909
 75      -0.002214998974
 76       0.000186902729
 77       0.000016663707
 78       0.000008728041
 79       0.000003147141
 80      -0.000022737761
 81      -0.000018243539
 82      -0.000000309467
 83       0.000001490376
 84      -0.000002032418
 85      -0.000010875529
 86       0.003281981475
 87       0.000008673436
 88       0.000004186059
 89      -0.000001659508
 90      -0.000109921237
 91       0.000026592128
 92       0.000011895053
 93      -0.001108135969
 94      -0.001559894551
 95       0.000304578702
 96       0.000006116734
 97       0.000000913150
 98       0.000002771969
 99       0.000008489911
100      -0.000005989453
101      -0.000000636618
102       0.000003187498
103      -0.000046399548
104       0.000231042555
105      -0.000148508629
106      -0.000001196998
107      -0.000002122859
108       0.000000396636
109      -0.000039109091
110      -0.000011685374
111       0.000006106894
112      -0.000475767960
113       0.000388491159
114       0.000020798020
115      -0.000006207403
116      -0.000002168180
117      -0.000001258478
118       0.000003190069
119       0.000003344004
120       0.000000046246
121      -0.000000231760
122       0.000008504989
123      -0.000055989269
124       0.000595425853
125      -0.000000491902
126      -0.000002040521
127       0.000000277832
128       0.000007704438
129       0.000013764756
130      -0.000002431201
131      -0.000238910265
132       0.000290949336
133       0.000000105330
134       0.000002235580
135       0.000000158616
136       0.000000346984
137       0.000001318108
138       0.000001617065
139      -0.000000064053
140       0.000000229097
141       0.000020567056
142      -0.000353439183
143      -0.000028894219
144      -0.000001038502
145      -0.000002969717
146       0.000000421998
147       0.000113018903
148       0.000066344895
149      -0.000021267500
150       0.000164240115
151       0.000104495441
152      -0.000031976177
153       0.000007200774
154       0.000002897719
155       0.000000844077
156      -0.000007827019
157      -0.000002640008
158       0.000000715197
159      -0.000004286237
160       0.000033384460
161      -0.000142200014
162       0.000118472958
163      -0.000014215145
164      -0.000008069378
165       0.000002734464
166       0.000074554842
167       0.000035441789
168      -0.000013519586
169       0.000235283106
170       0.000060587700
171      -0.000035646932
172       0.000006903136
173       0.000001322058
174       0.000002119329
175       0.000004547561
176      -0.000002667265
177      -0.000127940390
178      -0.000052011607
179      -0.000015677061
180       0.000134825249
181       0.000046138005
182      -0.000000083803
183       0.000000800044
184      -0.000077256319
185       0.000401048343
186       0.004887696510
187       0.000026697625
188       0.000031610430
189      -0.000006730723
190      -0.000569779798
191      -0.000228287810
192       0.000095884076
193      -0.004388541598
194      -0.001292272148
195       0.000686040108
196      -0.000043512656
197      -0.000022486825
198      -0.000006080042
199       0.000067368421
200       0.000040180538
201      -0.000004441940
202       0.000022915256
203      -0.000157424917
204      -0.000500989500
205      -0.011468346768
206       0.000151664583
207      -0.000011130397
208      -0.000018004077
209      -0.000931847375
210       0.000388559637
211       0.000076216763
212      -0.000100680673
213       0.001579196104
214      -0.000159252231
215      -0.000011779562
216      -0.000008862410
217      -0.000001784338
218       0.000027798075
219       0.000019127841
220      -0.000020588465
221       0.000115212556
222      -0.001088850174
223       0.004079691233
224       0.009319637390
225       0.000426433687