
                                 *****************
                                 * O   R   C   A *
                                 *****************

                                            #,                                       
                                            ###                                      
                                            ####                                     
                                            #####                                    
                                            ######                                   
                                           ########,                                 
                                     ,,################,,,,,                         
                               ,,#################################,,                 
                          ,,##########################################,,             
                       ,#########################################, ''#####,          
                    ,#############################################,,   '####,        
                  ,##################################################,,,,####,       
                ,###########''''           ''''###############################       
              ,#####''   ,,,,##########,,,,          '''####'''          '####       
            ,##' ,,,,###########################,,,                        '##       
           ' ,,###''''                  '''############,,,                           
         ,,##''                                '''############,,,,        ,,,,,,###''
      ,#''                                            '''#######################'''  
     '                                                          ''''####''''         
             ,#######,   #######,   ,#######,      ##                                
            ,#'     '#,  ##    ##  ,#'     '#,    #''#        ,####,    ,#,          
            ##       ##  ##   ,#'  ##            #'  '#       #'       ,# #          
            ##       ##  #######   ##           ,######,      #####,      #          
            '#,     ,#'  ##    ##  '#,     ,#' ,#      #,     #,   #      #          
             '#######'   ##     ##  '#######'  #'      '#     '####' #    #          



                #########################################################
                #                        -***-                          #
                #          Department of theory and spectroscopy        #
                #                                                       #
                #                      Frank Neese                      #
                #                                                       #
                #     Directorship, Architecture, Infrastructure        #
                #                    SHARK, DRIVERS                     #
                #        Core code/Algorithms in most modules           #
                #                                                       #
                #        Max Planck Institute fuer Kohlenforschung      #
                #                Kaiser Wilhelm Platz 1                 #
                #                 D-45470 Muelheim/Ruhr                 #
                #                      Germany                          #
                #                                                       #
                #                  All rights reserved                  #
                #                        -***-                          #
                #########################################################


                         Program Version 6.1.1  -  RELEASE   -
                                (GIT: $487d211c$)
                          ($2025-11-21 10:33:24 +0100$)


 With contributions from (in alphabetic order):
[Max-Planck-Institut fuer Kohlenforschung]                               
  Daniel Aravena         : Magnetic Suceptibility                        
  Michael Atanasov       : Ab Initio Ligand Field Theory (pilot matlab implementation)
  Alexander A. Auer      : GIAO ZORA, VPT2 properties, NMR spectrum      
  Ute Becker             : All parallelization in ORCA, NUMFREQ, NUMCALC 
  Giovanni Bistoni       : ED, misc. LED, open-shell LED, HFLD           
  Dmytro Bykov           : pre 5.0 version of the SCF Hessian            
  Marcos Casanova-Páez   : Triplet and SCS-CIS(D). UHF-(DLPNO)-IP/EA/STEOM-CCSD. UHF-CVS-IP/STEOM-CCSD   
  Vijay G. Chilkuri      : MRCI spin determinant printing, contributions to CSF-ICE 
  Pauline Colinet        : FMM embedding                                 
  Dipayan Datta          : RHF DLPNO-CCSD density                        
  Achintya Kumar Dutta   : EOM-CC, STEOM-CC                              
  Nicolas Foglia         : Exact transition moments, OPA infrastructure, MCD improvements    
  Dmitry Ganyushin       : Spin-Orbit,Spin-Spin,Magnetic field MRCI      
  Miquel Garcia-Rates    : C-PCM and meta-GGA Hessian, CCSD/C-PCM, Gaussian charge scheme 
  Tiago L. C. Gouveia    : GS-ROHF, GS-ROCIS                             
  Yang Guo               : DLPNO-NEVPT2, F12-NEVPT2, CIM, IAO-localization        
  Andreas Hansen         : Spin unrestricted coupled pair/coupled cluster methods 
  Ingolf Harden          : AUTO-CI MPn and infrastructure                
  Benjamin Helmich-Paris : MC-RPA, TRAH-(SCF,CASSCF), AVAS, COSX integrals, SCF dyn. polar., MC-PDFT, srDFT 
  Lee Huntington         : MR-EOM, pCC                                   
  Robert Izsak           : Overlap fitted RIJCOSX, COSX-SCS-MP3, EOM     
  Riya Kayal             : Wick's Theorem for AUTO-CI, AUTO-CI UHF-CCSDT 
  Emily Kempfer          : AUTO-CI RHF CISDT and CCSDT, approximate NEVPT4
  Christian Kollmar      : KDIIS, OOCD, Brueckner-CCSD(T), CCSD density, CASPT2, CASPT2-K, improved NEVPT2 
  Axel Koslowski         : Symmetry handling                             
  Simone Kossmann        : meta-GGA functionals, TD-DFT gradient, OOMP2, (MP2 Hessian; deprecated post 5.0) 
  Lucas Lang             : DCDCAS, Hyperfine gauge corrections, ICE-SOC+SSC
  Marvin Lechner         : AUTO-CI (C++ implementation), FIC-MRCC        
  Spencer Leger          : CASSCF response                               
  Dagmar Lenk            : GEPOL surface, SMD, ORCA-2-JSON               
  Dimitrios Liakos       : Extrapolation schemes; Compound Job, Property file
  Dimitrios Manganas     : Further ROCIS development; embedding schemes. LFT, Crystal Embedding 
  Dimitrios Pantazis     : SARC Basis sets                               
  Anastasios Papadopoulos: AUTO-CI, single reference methods and gradients 
  Taras Petrenko         : pre 6.0 DFT Hessian and TD-DFT gradient,  ECA, NRVS 
  Petra Pikulova         : Analytic Raman intensities                    
  Peter Pinski           : DLPNO-MP2, DLPNO-MP2 Gradient                 
  Shashank Vittal Rao    : ES-AILFT, MagRelax                            
  Christoph Reimann      : Effective Core Potentials                     
  Marius Retegan         : Local ZFS, SOC                                
  Christoph Riplinger    : Optimizer, TS searches, QM/MM, DLPNO-CCSD(T), (RO)-DLPNO pert. Triples 
  Michael Roemelt        : Original ROCIS implementation, recursive CI coupling coefficients
  Masaaki Saitow         : Open-shell DLPNO-CCSD energy and density      
  Barbara Sandhoefer     : DKH picture change effects                    
  Yorick L. A. Schmerwitz: GMF and freeze-and-release deltaSCF, NEB S-IDPP initial path                    
  Kantharuban Sivalingam : CASSCF convergence/infrastructure, NEVPT2, NEVPT3, NEVPT4(SD), FIC-MRCI and CEPA variants
  Bernardo de Souza      : ESD, SOC TD-DFT                               
  Georgi L. Stoychev     : AutoAux, RI-MP2 NMR, DLPNO-MP2 response, X2C  
  Van Anh Tran           : RI-MP2 g-tensors                              
  Willem Van den Heuvel  : Paramagnetic NMR                              
  Zikuan Wang            : NOTCH, Electric field optimization            
  Frank Wennmohs         : Technical directorship and infrastructure     
  Hang Xu                : AUTO-CI-Response properties                   
                                                                         
[FACCTs GmbH]                                                            
  Markus Bursch, Nicolas Foglia, Miquel Garcia-Rates, Ingolf Harden, Hagen Neugebauer, Anastasios Papadopoulos, 
  Christoph Riplinger, Bernardo de Souza, Georgi L. Stoychev                                                    
                                                                 
  APM, various basis sets, CI-OPT, improved COSX, DLPNO-Multilevel,           
  DOCKER, DRACO, updates on ESD, Fragmentator, GOAT, IRC, LR-CPCM, L-BFGS, MBIS, meta-GGA TD-DFT gradient, ML-optimized integration grids, 
  MM, NACMEs, nearIR, NEB, NEB-TS, NL-DFT gradient (VV10), 2- and 3-layer-ONIOM, interface openCOSMO-RS, QMMM,   
  Crystal-QMMM, RESP, rigid body optimization, SF, symmetry and pop. for TD-DFT, various functionals, SOLVATOR                                   
                                                                         
[Other institutions]                                                     
  V. Asgeirsson          : NEB                                           
  Christoph Bannwarth    : sTDA-DFT, sTD-DFT, PBEh-3c, B97-3c, D3        
  Giovanni Bistoni       : ETS/NOCV, ADLD/ADEX, COVALED                  
  Martin Brehm           : Molecular dynamics                            
  Ronald Cardenas        : ETS/NOCV                                      
  Martina Colucci        : COVALED                                       
  Sebastian Ehlert       : rSCAN, r2SCAN, r2SCAN-3c, D4, dhf basis sets  
  Marvin Friede          : D4 for Fr, Ra, Ac-Lr                          
  Lars Goerigk           : TD-DFT with DH, B97 family of functionals     
  Stefan Grimme          : VdW corrections, initial TS optimization, DFT functionals, gCP, sTDA/sTD-DF 
  Waldemar Hujo          : DFT-NL                                        
  H. Jonsson             : NEB                                           
  Holger Kruse           : gCP                                           
  Marcel Mueller         : wB97X-3c, vDZP basis set                      
  Hagen Neugebauer       : wr2SCAN, Native XTB                           
  Gianluca Regni         : ADLD/ADEX                                     
  Tobias Risthaus        : pre 6.0 range-separated hybrid DFT and stability analysis
  Lukas Wittmann         : regularized MP2, r2SCAN double-hybrids, wr2SCAN        
                                                                         
We gratefully acknowledge several colleagues who have allowed us to      
interface, adapt or use parts of their codes:                            
  Ed Valeev, F. Pavosevic, A. Kumar             : LibInt (2-el integral package), F12 methods 
  Garnet Chan, S. Sharma, J. Yang, R. Olivares  : DMRG                   
  Ulf Ekstrom                                   : XCFun DFT Library      
  Mihaly Kallay                                 : mrcc  (arbitrary order and MRCC methods)
  Frank Weinhold                                : gennbo (NPA and NBO analysis)           
  Simon Mueller                                 : openCOSMO-RS                            
  Christopher J. Cramer and Donald G. Truhlar   : smd solvation model                     
  S Lehtola, MJT Oliveira, MAL Marques          : LibXC Library                           
  Liviu Ungur et al                             : ANISO software                          


 Your calculation uses the libint2 library for the computation of 2-el integrals
 For citations please refer to: http://libint.valeyev.net

 Your ORCA version has been built with support for libXC version: 7.0.0
 For citations please refer to: https://libxc.gitlab.io

 This ORCA versions uses:
   CBLAS   interface :  Fast vector & matrix operations
   LAPACKE interface :  Fast linear algebra routines
   SCALAPACK package :  Parallel linear algebra routines
   Shared memory     :  Shared parallel matrices
   BLAS/LAPACK       :  OpenBLAS 0.3.29  USE64BITINT DYNAMIC_ARCH NO_AFFINITY Cooperlake SINGLE_THREADED
        Core in use  :  Cooperlake
   Copyright (c) 2011-2014, The OpenBLAS Project


  ***********************************
  * Starting time: Fri Jan 16 14:13:05 2026
  * Host name:     staff-205-230.eduroam.unibe.ch
  * Process ID:    3310856
  * Working dir.:  /home/mestevez/Projects/LsPAL3/SP/Bond/1b
  ***********************************



***************************************
The coordinates will be read from file: 1b_opt.xyz
***************************************


Your calculation utilizes the geometrical counterpoise correction gCP
Please cite in your paper:
H.Kruse, S. Grimme J.Chem.Phys., 136, (2012), 154101 
   

Your calculation utilizes the atom-pairwise dispersion correction
based on EEQ partial charges (D4)


================================================================================

----- Orbital basis set information -----
Your calculation utilizes the basis: def2-mTZVPP
   Stefan Grimme, Andreas Hansen, Sebastian Ehlert, and Jan-Michael Mewes 
   J. Chem. Phys. 154, 064103 (2021). DOI: 10.1063/5.0040021

----- AuxJ basis set information -----
Your calculation utilizes the basis: def2-mTZVPP/J
   Stefan Grimme, Andreas Hansen, Sebastian Ehlert, and Jan-Michael Mewes 
   J. Chem. Phys. 154, 000000 (2021). DOI: 10.1063/5.0040021

================================================================================
                                        WARNINGS
                       Please study these warnings very carefully!
================================================================================



WARNING: SCAN, rSCAN, or r2SCAN functional requested.
  ===> : libXC variant has now been activated.



================================================================================
                                       INPUT FILE
================================================================================
NAME = LUMO.in
|  1> ! r2SCAN-3c TightSCF
|  2> 
|  3> %pal
|  4>   nprocs 16
|  5> end
|  6> 
|  7> %scf
|  8>   PrintLevel 2
|  9> end
| 10> 
| 11> * xyzfile 0 1 1b_opt.xyz
| 12> 
| 13> 
| 14>                          ****END OF INPUT****
================================================================================

                       ****************************
                       * Single Point Calculation *
                       ****************************

---------------------------------
CARTESIAN COORDINATES (ANGSTROEM)
---------------------------------
  N     -1.036331    1.431292   -0.004398
  C     -2.081961    0.571570    0.219094
  C     -1.618166   -0.729760    0.295535
  C     -0.191845   -0.648309    0.104588
  C      0.140217    0.717689   -0.080597
  C      1.456032    1.101998   -0.289525
  C      2.387447    0.072269   -0.301294
  C      1.975081   -1.257057   -0.109440
  N      0.713342   -1.634082    0.091680
  C     -2.349525   -1.948168    0.515843
  C     -3.680818   -2.054801    0.693730
  C     -4.379310   -3.316557    0.915409
  O     -5.581476   -3.410543    1.078605
  O     -3.562162   -4.409518    0.925842
  H     -4.339829   -1.191162    0.684982
  H     -1.123737    2.429379   -0.097438
  H      1.747282    2.138533   -0.435253
  H      3.439641    0.286138   -0.458574
  H     -4.143374   -5.169150    1.080049
  H     -1.741084   -2.849786    0.534704
  H     -3.090327    0.951289    0.308449
  H      2.718161   -2.053275   -0.121331

----------------------------
CARTESIAN COORDINATES (A.U.)
----------------------------
  NO LB      ZA    FRAG     MASS         X           Y           Z
   0 N     7.0000    0    14.007   -1.958382    2.704750   -0.008312
   1 C     6.0000    0    12.011   -3.934336    1.080111    0.414027
   2 C     6.0000    0    12.011   -3.057890   -1.379046    0.558479
   3 C     6.0000    0    12.011   -0.362534   -1.225126    0.197643
   4 C     6.0000    0    12.011    0.264971    1.356235   -0.152307
   5 C     6.0000    0    12.011    2.751502    2.082474   -0.547123
   6 C     6.0000    0    12.011    4.511621    0.136568   -0.569363
   7 C     6.0000    0    12.011    3.732363   -2.375494   -0.206811
   8 N     7.0000    0    14.007    1.348022   -3.087968    0.173249
   9 C     6.0000    0    12.011   -4.439960   -3.681503    0.974803
  10 C     6.0000    0    12.011   -6.955738   -3.883011    1.310960
  11 C     6.0000    0    12.011   -8.275696   -6.267385    1.729872
  12 O     8.0000    0    15.999  -10.547462   -6.444992    2.038269
  13 O     8.0000    0    15.999   -6.731511   -8.332781    1.749588
  14 H     1.0000    0     1.008   -8.201088   -2.250971    1.294428
  15 H     1.0000    0     1.008   -2.123555    4.590861   -0.184131
  16 H     1.0000    0     1.008    3.301885    4.041242   -0.822509
  17 H     1.0000    0     1.008    6.499980    0.540722   -0.866579
  18 H     1.0000    0     1.008   -7.829843   -9.768277    2.040997
  19 H     1.0000    0     1.008   -3.290171   -5.385315    1.010445
  20 H     1.0000    0     1.008   -5.839871    1.797676    0.582884
  21 H     1.0000    0     1.008    5.136580   -3.880127   -0.229282

--------------------------------
INTERNAL COORDINATES (ANGSTROEM)
--------------------------------
 N      0   0   0     0.000000000000     0.00000000     0.00000000
 C      1   0   0     1.372010614749     0.00000000     0.00000000
 C      2   1   0     1.383621547443   110.05254566     0.00000000
 C      3   2   1     1.441348568775   105.73810529     0.00000000
 C      1   2   3     1.378150975433   109.58322126     0.00000000
 C      5   1   2     1.386619965302   132.44965406   179.97671079
 C      6   5   1     1.388529467772   115.61229884   180.00349601
 C      7   6   5     1.404977506973   120.24034855     0.00000000
 N      8   7   6     1.332134450446   124.49908947     0.00000000
 C      3   2   1     1.438033671796   129.41006072   180.02028235
 C     10   3   2     1.347350657243   126.14311151     0.16152410
 C     11  10   3     1.459130516755   124.15921193   180.04221819
 O     12  11  10     1.216828082423   124.06287444   179.84245634
 O     12  11  10     1.364698748354   114.02104006   359.83304055
 H     11  10   3     1.086390024038   122.37089619     0.00000000
 H      1   2   3     1.006217634673   124.77893887   179.99448164
 H      6   5   1     1.086493847585   122.61539295     0.00000000
 H      7   6   5     1.085167988299   120.36332782   180.00111788
 H     14  12  11     0.968828043012   105.66144643   179.98608218
 H     10   3   2     1.087875683529   114.86105075   180.14524007
 H      2   1   3     1.081190077514   120.27658011   180.00263675
 H      8   7   6     1.089160424473   119.33673536   180.00853209

---------------------------
INTERNAL COORDINATES (A.U.)
---------------------------
 N      0   0   0     0.000000000000     0.00000000     0.00000000
 C      1   0   0     2.592724314709     0.00000000     0.00000000
 C      2   1   0     2.614665797659   110.05254566     0.00000000
 C      3   2   1     2.723754058504   105.73810529     0.00000000
 C      1   2   3     2.604327914765   109.58322126     0.00000000
 C      5   1   2     2.620331986247   132.44965406   179.97671079
 C      6   5   1     2.623940422968   115.61229884   180.00349601
 C      7   6   5     2.655022712499   120.24034855     0.00000000
 N      8   7   6     2.517369284906   124.49908947     0.00000000
 C      3   2   1     2.717489811052   129.41006072   180.02028235
 C     10   3   2     2.546123748547   126.14311151     0.16152410
 C     11  10   3     2.757357070313   124.15921193   180.04221819
 O     12  11  10     2.299471827844   124.06287444   179.84245634
 O     12  11  10     2.578906889695   114.02104006   359.83304055
 H     11  10   3     2.052979620056   122.37089619     0.00000000
 H      1   2   3     1.901475760655   124.77893887   179.99448164
 H      6   5   1     2.053175818126   122.61539295     0.00000000
 H      7   6   5     2.050670307184   120.36332782   180.00111788
 H     14  12  11     1.830819672156   105.66144643   179.98608218
 H     10   3   2     2.055787109621   114.86105075   180.14524007
 H      2   1   3     2.043153145214   120.27658011   180.00263675
 H      8   7   6     2.058214918160   119.33673536   180.00853209

---------------------
BASIS SET INFORMATION
---------------------
There are 4 groups of distinct atoms

 Group   1 Type N   : 11s6p2d contracted to 5s3p2d pattern {62111/411/11}
 Group   2 Type C   : 11s6p1d contracted to 5s3p1d pattern {62111/411/1}
 Group   3 Type O   : 11s6p2d contracted to 5s3p2d pattern {62111/411/11}
 Group   4 Type H   : 4s1p contracted to 2s1p pattern {31/1}

Atom   0N    basis set group =>   1
Atom   1C    basis set group =>   2
Atom   2C    basis set group =>   2
Atom   3C    basis set group =>   2
Atom   4C    basis set group =>   2
Atom   5C    basis set group =>   2
Atom   6C    basis set group =>   2
Atom   7C    basis set group =>   2
Atom   8N    basis set group =>   1
Atom   9C    basis set group =>   2
Atom  10C    basis set group =>   2
Atom  11C    basis set group =>   2
Atom  12O    basis set group =>   3
Atom  13O    basis set group =>   3
Atom  14H    basis set group =>   4
Atom  15H    basis set group =>   4
Atom  16H    basis set group =>   4
Atom  17H    basis set group =>   4
Atom  18H    basis set group =>   4
Atom  19H    basis set group =>   4
Atom  20H    basis set group =>   4
Atom  21H    basis set group =>   4
---------------------------------
AUXILIARY/J BASIS SET INFORMATION
---------------------------------
There are 4 groups of distinct atoms

 Group   1 Type N   : 8s3p3d contracted to 6s3p3d pattern {311111/111/111}
 Group   2 Type C   : 8s3p3d contracted to 6s3p3d pattern {311111/111/111}
 Group   3 Type O   : 8s3p3d contracted to 6s3p3d pattern {311111/111/111}
 Group   4 Type H   : 5s2p1d contracted to 3s1p1d pattern {311/2/1}

Atom   0N    basis set group =>   1
Atom   1C    basis set group =>   2
Atom   2C    basis set group =>   2
Atom   3C    basis set group =>   2
Atom   4C    basis set group =>   2
Atom   5C    basis set group =>   2
Atom   6C    basis set group =>   2
Atom   7C    basis set group =>   2
Atom   8N    basis set group =>   1
Atom   9C    basis set group =>   2
Atom  10C    basis set group =>   2
Atom  11C    basis set group =>   2
Atom  12O    basis set group =>   3
Atom  13O    basis set group =>   3
Atom  14H    basis set group =>   4
Atom  15H    basis set group =>   4
Atom  16H    basis set group =>   4
Atom  17H    basis set group =>   4
Atom  18H    basis set group =>   4
Atom  19H    basis set group =>   4
Atom  20H    basis set group =>   4
Atom  21H    basis set group =>   4


           ************************************************************
           *        Program running with 16 parallel MPI-processes    *
           *              working on a common directory               *
           ************************************************************
------------------------------------------------------------------------------
                             ORCA STARTUP CALCULATIONS
                           -- RI-GTO INTEGRALS CHOSEN --
------------------------------------------------------------------------------
------------------------------------------------------------------------------
                   ___                                                        
                  /   \      - P O W E R E D   B Y -                         
                 /     \                                                     
                 |  |  |   _    _      __       _____    __    __             
                 |  |  |  | |  | |    /  \     |  _  \  |  |  /  |          
                  \  \/   | |  | |   /    \    | | | |  |  | /  /          
                 / \  \   | |__| |  /  /\  \   | |_| |  |  |/  /          
                |  |  |   |  __  | /  /__\  \  |    /   |      \           
                |  |  |   | |  | | |   __   |  |    \   |  |\   \          
                \     /   | |  | | |  |  |  |  | |\  \  |  | \   \       
                 \___/    |_|  |_| |__|  |__|  |_| \__\ |__|  \__/        
                                                                              
                      - O R C A' S   B I G   F R I E N D -                    
                                      &                                       
                       - I N T E G R A L  F E E D E R -                       
                                                                              
 v1 FN, 2020, v2 2021, v3 2022-2024                                           
------------------------------------------------------------------------------


----------------------
SHARK INTEGRAL PACKAGE
----------------------

Number of atoms                             ...     22
Number of basis functions                   ...    326
Number of shells                            ...    154
Maximum angular momentum                    ...      2
Integral batch strategy                     ... SHARK/LIBINT Hybrid
RI-J (if used) integral strategy            ... SPLIT-RIJ (Revised 2003 algorithm where possible)
Printlevel                                  ...      1
Contraction scheme used                     ... SEGMENTED contraction
Prescreening option                         ... SCHWARTZ
   Thresh                                   ... 2.500e-11
   Tcut                                     ... 2.500e-12
   Tpresel                                  ... 2.500e-12 
Coulomb Range Separation                    ... NOT USED
Exchange Range Separation                   ... NOT USED
Multipole approximations                    ... NOT USED
Finite Nucleus Model                        ... NOT USED
CABS basis                                  ... NOT available
Auxiliary Coulomb fitting basis             ... AVAILABLE
   # of basis functions in Aux-J            ...    508
   # of shells in Aux-J                     ...    208
   Maximum angular momentum in Aux-J        ...      2
Auxiliary J/K fitting basis                 ... NOT available
Auxiliary Correlation fitting basis         ... NOT available
Auxiliary 'external' fitting basis          ... NOT available

Checking pre-screening integrals            ... done (  0.0 sec) Dimension = 154
   => SHARK Basis and OBASIS are compatible. Storing Pre-screening
Shell pair information
Shell pair cut-off parameter TPreSel        ...   2.5e-12
Total number of shell pairs                 ...     11935
Shell pairs after pre-screening             ...      9300
Total number of primitive shell pairs       ...     44288
Primitive shell pairs kept                  ...     22991
          la=0 lb=0:   2752 shell pairs
          la=1 lb=0:   3434 shell pairs
          la=1 lb=1:   1080 shell pairs
          la=2 lb=0:   1165 shell pairs
          la=2 lb=1:    730 shell pairs
          la=2 lb=2:    139 shell pairs

Checking whether 4 symmetric matrices of dimension 326 fit in memory
:Max Core in MB      =   4096.00
 MB in use           =     13.06
 MB left             =   4082.94
 MB needed           =      1.63
 Data fit in memory  = YES
Calculating RI/J V-Matrix + Cholesky decomp.... done (  0.0 sec)
Calculating Nuclear repulsion               ... done (  0.0 sec) ENN=    791.825779631359 Eh

Diagonalization of the overlap matrix:
Smallest eigenvalue                        ... 2.078e-05
Time for diagonalization                   ...    0.005 sec
Threshold for overlap eigenvalues          ... 1.000e-07
Number of eigenvalues below threshold      ... 0
Time for construction of square roots      ...    0.002 sec
Total time needed                          ...    0.008 sec

-------------------
DFT GRID GENERATION
-------------------

General Integration Accuracy     IntAcc      ... 4.388
Radial Grid Type                 RadialGrid  ... OptM3 with GC (2021)
Angular Grid (max. ang.)         AngularGrid ... 4 (Lebedev-302)
Angular grid pruning method      GridPruning ... 4 (adaptive)
Weight generation scheme         WeightScheme... mBecke (2022)
Basis function cutoff            BFCut       ... 1.0000e-11
Integration weight cutoff        WCut        ... 1.0000e-14
Partially contracted basis set               ... off
Rotationally invariant grid construction     ... off
Angular grids for H and He will be reduced by one unit
Diffuse basis detected: some atoms will have their outermost
                        angular grid increased by 1.

Total number of grid points                  ...   110519
Total number of batches                      ...     1739
Average number of points per batch           ...       63
Average number of grid points per atom       ...     5024
Grids setup in   0.3 sec
Initializing property integral containers    ... done (  0.0 sec)

SHARK setup successfully completed in   0.4 seconds

Maximum memory used throughout the entire STARTUP-calculation: 32.6 MB


           ************************************************************
           *        Program running with 16 parallel MPI-processes    *
           *              working on a common directory               *
           ************************************************************
-------------------------------------------------------------------------------
                                 ORCA GUESS
                   Start orbitals & Density for SCF / CASSCF
-------------------------------------------------------------------------------

------------
SCF SETTINGS
------------
Hamiltonian:
 Density Functional     Method          .... DFT(GTOs)
  Functional kind                       .... Exchange
  Functional name                       .... Re-regularized SCAN exchange by Furness et al
  Functional family                     .... MGGA
  Functional refs                              
    [ 0] J. W. Furness, A. D. Kaplan, J. Ning, J. P. Perdew, and J. Sun.,  J. Phys. Chem. Lett. 11, 8208-8215 (2020), doi: 10.1021/acs.jpclett.0c02405
    [ 1] J. W. Furness, A. D. Kaplan, J. Ning, J. P. Perdew, and J. Sun.,  J. Phys. Chem. Lett. 11, 9248-9248 (2020), doi: 10.1021/acs.jpclett.0c03077
  Functional external parameters        .... 6
    Parameter  0 _c1        =  6.670000e-01 : c1 parameter        
    Parameter  1 _c2        =  8.000000e-01 : c2 parameter        
    Parameter  2 _d         =  1.240000e+00 : d parameter         
    Parameter  3 _k1        =  6.500000e-02 : k1 parameter        
    Parameter  4 _eta       =  1.000000e-03 : eta parameter       
    Parameter  5 _dp2       =  3.610000e-01 : dp2 parameter       
  Functional kind                       .... Correlation
  Functional name                       .... Re-regularized SCAN correlation by Furness et al
  Functional family                     .... MGGA
  Functional refs                              
    [ 0] J. W. Furness, A. D. Kaplan, J. Ning, J. P. Perdew, and J. Sun.,  J. Phys. Chem. Lett. 11, 8208-8215 (2020), doi: 10.1021/acs.jpclett.0c02405
    [ 1] J. W. Furness, A. D. Kaplan, J. Ning, J. P. Perdew, and J. Sun.,  J. Phys. Chem. Lett. 11, 9248-9248 (2020), doi: 10.1021/acs.jpclett.0c03077
  Functional external parameters        .... 1
    Parameter  0 _eta       =  1.000000e-03 : Regularization parameter
 Gradients option       PostSCFGGA      .... off
 RI-approximation to the Coulomb term is turned on
   Number of AuxJ basis functions       .... 508


General Settings:
 Integral files         IntName         .... LUMO
 Hartree-Fock type      HFTyp           .... RHF
 Total Charge           Charge          ....    0
 Multiplicity           Mult            ....    1
 Number of Electrons    NEL             ....   98
 Basis Dimension        Dim             ....  326
 Nuclear Repulsion      ENuc            ....    791.8257796314 Eh

Convergence Acceleration:
 AO-DIIS                CNVDIIS         .... on
   Start iteration      DIISMaxIt       ....    12
   Startup error        DIISStart       ....  0.200000
   # of expansion vecs  DIISMaxEq       ....     5
   Bias factor          DIISBfac        ....   1.050
   Max. coefficient     DIISMaxC        ....  10.000
 MO-DIIS                CNVKDIIS        .... off
 Trust-Rad. Augm. Hess. CNVTRAH         .... auto
   Auto Start mean grad. ratio tolernc. ....  1.125000
   Auto Start start iteration           ....    50
   Auto Start num. interpolation iter.  ....    10
   Max. Number of Micro iterations      ....    24
   Max. Number of Macro iterations      .... Maxiter - #DIIS iter
   Number of Davidson start vectors     ....     2
   Converg. threshold    (grad. norm)   ....   1.000e-05
   Grad. Scal. Fac. for Micro threshold ....   0.100
   Minimum threshold for Micro iter.    ....   1.000e-02
   NR start threshold (gradient norm)   ....   1.000e-04
   Initial trust radius                 ....   0.400
   Minimum AH scaling param. (alpha)    ....   1.000
   Maximum AH scaling param. (alpha)    .... 1000.000
   Quad. conv. algorithm                .... NR
   White noise on init. David. guess    .... on
   Maximum white noise                  ....   0.010
   Pseudo random numbers                .... off
   Inactive MOs                         .... canonical
   Orbital update algorithm             .... Taylor
   Preconditioner                       .... Diag
   Full preconditioner red. dimension   ....   250
   COSX micro iterations for RIJONX calc.... off
 SOSCF                 CNVSOSCF           .... on
   Start iteration     SOSCFMaxIt         ....   150
   Startup grad/error  SOSCFStart         ....  0.003300
   Hessian update      SOSCFHessUp        .... L-BFGS
   Autom. constraints  SOSCFAutoConstrain .... off
 Level Shifting         CNVShift        .... on
   Level shift para.    LevelShift      ....    0.2500
   Turn off err/grad.   ShiftErr        ....    0.0010
 Zerner damping         CNVZerner       .... off
 Static damping         CNVDamp         .... on
   Fraction old density DampFac         ....    0.7000
   Max. Damping (<1)    DampMax         ....    0.9800
   Min. Damping (>=0)   DampMin         ....    0.0000
   Turn off err/grad.   DampErr         ....    0.1000

SCF Procedure:
 Maximum # iterations   MaxIter         ....   125
 SCF integral mode      SCFMode         .... Direct
   Integral package                     .... SHARK and LIBINT hybrid scheme
 Reset frequency        DirectResetFreq ....    20
 Integral Threshold     Thresh          ....  2.500e-11 Eh
 Primitive CutOff       TCut            ....  2.500e-12 Eh

Convergence Tolerance:
 Convergence Check Mode ConvCheckMode   .... Total+1el-Energy
 Convergence forced     ConvForced      .... 0
 Energy Change          TolE            ....  1.000e-08 Eh
 1-El. energy change                    ....  1.000e-05 Eh
 Orbital Gradient       TolG            ....  1.000e-05
 Orbital Rotation angle TolX            ....  1.000e-05
 DIIS Error             TolErr          ....  5.000e-07

------------------------------
INITIAL GUESS: MODEL POTENTIAL
------------------------------
Loading Hartree-Fock densities                     ... done
Calculating cut-offs                               ... done
Initializing the effective Hamiltonian             ... done
Setting up the integral package (SHARK)            ... done
Starting the Coulomb interaction                   ... done (   0.0 sec)
Making the grid                                    ... done (   0.1 sec)
Mapping shells                                     ... done
Starting the XC term evaluation                    ... done (   0.0 sec)
  promolecular density results
     # of electrons  =     97.993967983
     EX              =    -82.925116254
     EC              =     -3.297315617
     EX+EC           =    -86.222431871
Transforming the Hamiltonian                       ... done (   0.0 sec)
Diagonalizing the Hamiltonian                      ... done (   0.0 sec)
Back transforming the eigenvectors                 ... done (   0.0 sec)
Now organizing SCF variables                       ... done
                      ------------------
                      INITIAL GUESS DONE (   0.1 sec)
                      ------------------
             **** ENERGY FILE WAS UPDATED (LUMO.en.tmp) ****
Finished Guess after   0.2 sec
Maximum memory used throughout the entire GUESS-calculation: 17.0 MB


           ************************************************************
           *        Program running with 16 parallel MPI-processes    *
           *              working on a common directory               *
           ************************************************************

-------------------------------------------------------------------------------------------
                                      ORCA LEAN-SCF
                              memory conserving SCF solver
-------------------------------------------------------------------------------------------

----------------------------------------D-I-I-S--------------------------------------------
Iteration    Energy (Eh)           Delta-E    RMSDP     MaxDP     DIISErr   Damp  Time(sec)
-------------------------------------------------------------------------------------------
               ***  Starting incremental Fock matrix formation  ***
    1    -645.4009667359026707     0.00e+00  1.65e-02  4.03e-01  2.80e-01  0.700   0.2
    2    -645.5557412880508537    -1.55e-01  1.38e-02  3.58e-01  1.02e-01  0.700   0.2
                               ***Turning on AO-DIIS***
    3    -645.6120555115611523    -5.63e-02  4.15e-03  4.84e-02  3.86e-02  0.700   0.1
    4    -645.6468995862913971    -3.48e-02  8.11e-03  1.46e-01  1.80e-02  0.000   0.2
    5    -645.7242911947886341    -7.74e-02  3.53e-03  9.55e-02  9.16e-03  0.000   0.1
                              *** Initializing SOSCF ***
---------------------------------------S-O-S-C-F--------------------------------------
Iteration    Energy (Eh)           Delta-E    RMSDP     MaxDP     MaxGrad    Time(sec)
--------------------------------------------------------------------------------------
    6    -645.7248637452127014    -5.73e-04  1.04e-03  2.03e-02  3.24e-03     0.2
               *** Restarting incremental Fock matrix formation ***
    7    -645.7249299761054999    -6.62e-05  8.71e-04  2.23e-02  4.75e-04     0.2
    8    -645.7248801696651981     4.98e-05  4.27e-04  1.06e-02  1.59e-03     0.1
    9    -645.7249438036700440    -6.36e-05  7.04e-05  9.01e-04  8.04e-05     0.1
   10    -645.7249432160132301     5.88e-07  3.12e-05  3.98e-04  1.26e-04     0.1
   11    -645.7249441517730020    -9.36e-07  2.45e-05  3.84e-04  4.00e-05     0.1
   12    -645.7249440682472823     8.35e-08  1.25e-05  1.72e-04  5.59e-05     0.1
   13    -645.7249441948487174    -1.27e-07  7.58e-06  1.12e-04  7.59e-06     0.1
   14    -645.7249441878633434     6.99e-09  6.54e-06  1.38e-04  1.18e-05     0.1
                 **** Energy Check signals convergence ****

               *****************************************************
               *                     SUCCESS                       *
               *           SCF CONVERGED AFTER  14 CYCLES          *
               *****************************************************

             **** ENERGY FILE WAS UPDATED (LUMO.en.tmp) ****

----------------
TOTAL SCF ENERGY
----------------

Total Energy       :       -645.72494419603811 Eh          -17571.06903 eV

Components:
Nuclear Repulsion  :        791.82577963135930 Eh           21546.67488 eV
Electronic Energy  :      -1437.55072382739741 Eh          -39117.74390 eV
One Electron Energy:      -2447.65181735581791 Eh          -66603.99203 eV
Two Electron Energy:       1010.10109352842051 Eh           27486.24813 eV

Virial components:
Potential Energy   :      -1288.75573515045471 Eh          -35068.82642 eV
Kinetic Energy     :        643.03079095441649 Eh           17497.75739 eV
Virial Ratio       :          2.00418977330405

DFT components:
N(Alpha)           :       49.000029908381 electrons
N(Beta)            :       49.000029908381 electrons
N(Total)           :       98.000059816762 electrons
E(X)               :      -84.798715746670 Eh       
E(C)               :       -3.239884559257 Eh       
E(XC)              :      -88.038600305927 Eh       

---------------
SCF CONVERGENCE
---------------

  Last Energy change         ...   -6.9854e-09  Tolerance :   1.0000e-08
  Last MAX-Density change    ...    1.3836e-04  Tolerance :   1.0000e-07
  Last RMS-Density change    ...    6.5435e-06  Tolerance :   5.0000e-09
  Last DIIS Error            ...    3.2354e-03  Tolerance :   5.0000e-07
  Last Orbital Gradient      ...    1.1786e-05  Tolerance :   1.0000e-05
  Last Orbital Rotation      ...    2.3372e-05  Tolerance :   1.0000e-05


----------------
ORBITAL ENERGIES
----------------

  NO   OCC          E(Eh)            E(eV) 
   0   2.0000     -18.984853      -516.6041 
   1   2.0000     -18.923913      -514.9459 
   2   2.0000     -14.240934      -387.5155 
   3   2.0000     -14.164514      -385.4360 
   4   2.0000     -10.148826      -276.1636 
   5   2.0000     -10.096998      -274.7533 
   6   2.0000     -10.091715      -274.6095 
   7   2.0000     -10.076444      -274.1940 
   8   2.0000     -10.072755      -274.0936 
   9   2.0000     -10.069459      -274.0039 
  10   2.0000     -10.057624      -273.6819 
  11   2.0000     -10.053192      -273.5613 
  12   2.0000     -10.052546      -273.5437 
  13   2.0000     -10.039868      -273.1987 
  14   2.0000      -1.054226       -28.6870 
  15   2.0000      -0.981532       -26.7088 
  16   2.0000      -0.964319       -26.2404 
  17   2.0000      -0.911307       -24.7979 
  18   2.0000      -0.802040       -21.8246 
  19   2.0000      -0.778657       -21.1883 
  20   2.0000      -0.745522       -20.2867 
  21   2.0000      -0.718394       -19.5485 
  22   2.0000      -0.644303       -17.5324 
  23   2.0000      -0.630217       -17.1491 
  24   2.0000      -0.601129       -16.3576 
  25   2.0000      -0.563770       -15.3410 
  26   2.0000      -0.535431       -14.5698 
  27   2.0000      -0.530638       -14.4394 
  28   2.0000      -0.489463       -13.3190 
  29   2.0000      -0.472979       -12.8704 
  30   2.0000      -0.453222       -12.3328 
  31   2.0000      -0.441006       -12.0004 
  32   2.0000      -0.433525       -11.7968 
  33   2.0000      -0.430014       -11.7013 
  34   2.0000      -0.414430       -11.2772 
  35   2.0000      -0.402558       -10.9541 
  36   2.0000      -0.393623       -10.7110 
  37   2.0000      -0.383856       -10.4452 
  38   2.0000      -0.362468        -9.8633 
  39   2.0000      -0.355777        -9.6812 
  40   2.0000      -0.348983        -9.4963 
  41   2.0000      -0.340346        -9.2613 
  42   2.0000      -0.315407        -8.5827 
  43   2.0000      -0.281024        -7.6470 
  44   2.0000      -0.270831        -7.3697 
  45   2.0000      -0.237649        -6.4668 
  46   2.0000      -0.235332        -6.4037 
  47   2.0000      -0.231878        -6.3097 
  48   2.0000      -0.206913        -5.6304 
  49   0.0000      -0.089961        -2.4480 
  50   0.0000      -0.066358        -1.8057 
  51   0.0000      -0.028557        -0.7771 
  52   0.0000       0.026686         0.7262 
  53   0.0000       0.046932         1.2771 
  54   0.0000       0.068419         1.8618 
  55   0.0000       0.073059         1.9880 
  56   0.0000       0.080488         2.1902 
  57   0.0000       0.081474         2.2170 
  58   0.0000       0.097215         2.6454 
  59   0.0000       0.117094         3.1863 
*Only the first 10 virtual orbitals were printed.

                    ********************************
                    * MULLIKEN POPULATION ANALYSIS *
                    ********************************

-----------------------
MULLIKEN ATOMIC CHARGES
-----------------------
   0 N :   -0.039376
   1 C :   -0.159101
   2 C :   -0.019615
   3 C :    0.353378
   4 C :    0.018469
   5 C :   -0.359171
   6 C :   -0.095150
   7 C :   -0.095269
   8 N :   -0.212297
   9 C :   -0.260051
  10 C :   -0.168320
  11 C :    0.278263
  12 O :   -0.396544
  13 O :   -0.361804
  14 H :    0.151231
  15 H :    0.259881
  16 H :    0.148661
  17 H :    0.155564
  18 H :    0.325109
  19 H :    0.191861
  20 H :    0.144764
  21 H :    0.139518
Sum of atomic charges:    0.0000000

--------------------------------
MULLIKEN REDUCED ORBITAL CHARGES
--------------------------------
  0 N s       :     3.290825  s :     3.290825
      pz      :     1.566622  p :     3.637524
      px      :     0.963102
      py      :     1.107801
      dz2     :     0.006797  d :     0.111027
      dxz     :     0.020722
      dyz     :     0.021104
      dx2y2   :     0.043093
      dxy     :     0.019311

  1 C s       :     3.275643  s :     3.275643
      pz      :     0.989247  p :     2.833059
      px      :     0.938768
      py      :     0.905044
      dz2     :     0.004491  d :     0.050399
      dxz     :     0.005190
      dyz     :     0.010372
      dx2y2   :     0.011355
      dxy     :     0.018991

  2 C s       :     3.309259  s :     3.309259
      pz      :     1.058992  p :     2.662064
      px      :     0.917636
      py      :     0.685436
      dz2     :     0.004035  d :     0.048291
      dxz     :     0.006150
      dyz     :     0.007231
      dx2y2   :     0.017850
      dxy     :     0.013026

  3 C s       :     3.006368  s :     3.006368
      pz      :     0.962198  p :     2.573460
      px      :     0.778925
      py      :     0.832338
      dz2     :     0.004722  d :     0.066794
      dxz     :     0.009636
      dyz     :     0.007647
      dx2y2   :     0.027315
      dxy     :     0.017474

  4 C s       :     3.159189  s :     3.159189
      pz      :     0.991589  p :     2.759719
      px      :     0.873443
      py      :     0.894687
      dz2     :     0.004935  d :     0.062624
      dxz     :     0.011748
      dyz     :     0.007653
      dx2y2   :     0.018253
      dxy     :     0.020036

  5 C s       :     3.302255  s :     3.302255
      pz      :     0.994498  p :     3.017448
      px      :     0.974651
      py      :     1.048300
      dz2     :     0.003391  d :     0.039467
      dxz     :     0.007324
      dyz     :     0.003227
      dx2y2   :     0.014229
      dxy     :     0.011296

  6 C s       :     3.119778  s :     3.119778
      pz      :     1.022767  p :     2.938274
      px      :     1.005862
      py      :     0.909645
      dz2     :     0.003291  d :     0.037098
      dxz     :     0.002901
      dyz     :     0.006143
      dx2y2   :     0.012598
      dxy     :     0.012165

  7 C s       :     3.225058  s :     3.225058
      pz      :     0.927401  p :     2.815266
      px      :     0.935855
      py      :     0.952010
      dz2     :     0.004123  d :     0.054945
      dxz     :     0.007495
      dyz     :     0.005084
      dx2y2   :     0.016654
      dxy     :     0.021589

  8 N s       :     3.449739  s :     3.449739
      pz      :     1.174713  p :     3.690229
      px      :     0.989846
      py      :     1.525670
      dz2     :     0.006514  d :     0.072330
      dxz     :     0.005377
      dyz     :     0.017015
      dx2y2   :     0.015108
      dxy     :     0.028316

  9 C s       :     3.320644  s :     3.320644
      pz      :     0.899186  p :     2.899291
      px      :     1.000325
      py      :     0.999780
      dz2     :     0.003523  d :     0.040116
      dxz     :     0.007389
      dyz     :     0.003623
      dx2y2   :     0.010733
      dxy     :     0.014849

 10 C s       :     3.084326  s :     3.084326
      pz      :     1.060764  p :     3.048773
      px      :     0.962966
      py      :     1.025043
      dz2     :     0.003325  d :     0.035221
      dxz     :     0.004987
      dyz     :     0.002237
      dx2y2   :     0.009865
      dxy     :     0.014806

 11 C s       :     3.096803  s :     3.096803
      pz      :     0.784895  p :     2.500051
      px      :     0.787305
      py      :     0.927851
      dz2     :     0.006736  d :     0.124883
      dxz     :     0.024302
      dyz     :     0.011889
      dx2y2   :     0.028969
      dxy     :     0.052988

 12 O s       :     3.827208  s :     3.827208
      pz      :     1.452316  p :     4.541650
      px      :     1.298661
      py      :     1.790673
      dz2     :     0.003909  d :     0.027685
      dxz     :     0.008529
      dyz     :     0.001548
      dx2y2   :     0.012496
      dxy     :     0.001204

 13 O s       :     3.741403  s :     3.741403
      pz      :     1.797121  p :     4.591385
      px      :     1.575459
      py      :     1.218806
      dz2     :     0.002879  d :     0.029016
      dxz     :     0.006056
      dyz     :     0.003751
      dx2y2   :     0.004615
      dxy     :     0.011715

 14 H s       :     0.829589  s :     0.829589
      pz      :     0.004210  p :     0.019180
      px      :     0.006470
      py      :     0.008500

 15 H s       :     0.707567  s :     0.707567
      pz      :     0.009226  p :     0.032552
      px      :     0.004118
      py      :     0.019209

 16 H s       :     0.831951  s :     0.831951
      pz      :     0.004240  p :     0.019388
      px      :     0.003850
      py      :     0.011298

 17 H s       :     0.825058  s :     0.825058
      pz      :     0.004438  p :     0.019378
      px      :     0.011520
      py      :     0.003420

 18 H s       :     0.632417  s :     0.632417
      pz      :     0.011744  p :     0.042474
      px      :     0.013972
      py      :     0.016758

 19 H s       :     0.788887  s :     0.788887
      pz      :     0.003401  p :     0.019252
      px      :     0.005969
      py      :     0.009882

 20 H s       :     0.834826  s :     0.834826
      pz      :     0.004634  p :     0.020410
      px      :     0.011997
      py      :     0.003779

 21 H s       :     0.841739  s :     0.841739
      pz      :     0.003748  p :     0.018743
      px      :     0.007056
      py      :     0.007938



                     *******************************
                     * LOEWDIN POPULATION ANALYSIS *
                     *******************************

----------------------
LOEWDIN ATOMIC CHARGES
----------------------
   0 N :   -0.622843
   1 C :    0.118507
   2 C :   -0.048310
   3 C :    0.190836
   4 C :    0.163382
   5 C :   -0.108169
   6 C :   -0.156041
   7 C :    0.079244
   8 N :   -0.584886
   9 C :   -0.069798
  10 C :   -0.134891
  11 C :    0.350308
  12 O :   -0.432172
  13 O :   -0.431031
  14 H :    0.179975
  15 H :    0.281033
  16 H :    0.175726
  17 H :    0.173053
  18 H :    0.290518
  19 H :    0.204523
  20 H :    0.194573
  21 H :    0.186461

-------------------------------
LOEWDIN REDUCED ORBITAL CHARGES
-------------------------------
  0 N s       :     3.091354  s :     3.091354
      pz      :     1.512328  p :     3.962488
      px      :     1.233267
      py      :     1.216893
      dz2     :     0.056705  d :     0.569002
      dxz     :     0.124079
      dyz     :     0.057268
      dx2y2   :     0.188289
      dxy     :     0.142661

  1 C s       :     2.830259  s :     2.830259
      pz      :     0.934624  p :     2.942197
      px      :     1.016838
      py      :     0.990735
      dz2     :     0.008729  d :     0.109037
      dxz     :     0.008596
      dyz     :     0.020228
      dx2y2   :     0.029162
      dxy     :     0.042321

  2 C s       :     2.835505  s :     2.835505
      pz      :     1.041491  p :     3.116758
      px      :     1.026931
      py      :     1.048336
      dz2     :     0.007145  d :     0.096047
      dxz     :     0.010668
      dyz     :     0.012217
      dx2y2   :     0.037913
      dxy     :     0.028104

  3 C s       :     2.760399  s :     2.760399
      pz      :     0.911037  p :     2.907692
      px      :     1.005827
      py      :     0.990827
      dz2     :     0.009771  d :     0.141074
      dxz     :     0.017019
      dyz     :     0.014461
      dx2y2   :     0.062583
      dxy     :     0.037240

  4 C s       :     2.767690  s :     2.767690
      pz      :     0.949702  p :     2.937261
      px      :     1.008462
      py      :     0.979097
      dz2     :     0.010146  d :     0.131667
      dxz     :     0.021812
      dyz     :     0.014034
      dx2y2   :     0.042275
      dxy     :     0.043400

  5 C s       :     2.895472  s :     2.895472
      pz      :     0.978535  p :     3.131609
      px      :     1.050406
      py      :     1.102669
      dz2     :     0.005596  d :     0.081088
      dxz     :     0.013140
      dyz     :     0.005127
      dx2y2   :     0.030731
      dxy     :     0.026494

  6 C s       :     2.907836  s :     2.907836
      pz      :     1.002642  p :     3.169869
      px      :     1.087310
      py      :     1.079917
      dz2     :     0.005622  d :     0.078336
      dxz     :     0.004617
      dyz     :     0.011459
      dx2y2   :     0.029400
      dxy     :     0.027238

  7 C s       :     2.834965  s :     2.834965
      pz      :     0.888637  p :     2.964756
      px      :     1.029339
      py      :     1.046779
      dz2     :     0.008322  d :     0.121035
      dxz     :     0.013530
      dyz     :     0.009812
      dx2y2   :     0.036361
      dxy     :     0.053010

  8 N s       :     3.232860  s :     3.232860
      pz      :     1.150669  p :     3.884533
      px      :     1.210594
      py      :     1.523269
      dz2     :     0.048622  d :     0.467493
      dxz     :     0.100312
      dyz     :     0.039392
      dx2y2   :     0.139294
      dxy     :     0.139873

  9 C s       :     2.900311  s :     2.900311
      pz      :     0.893404  p :     3.085734
      px      :     1.106079
      py      :     1.086252
      dz2     :     0.006009  d :     0.083752
      dxz     :     0.013511
      dyz     :     0.006420
      dx2y2   :     0.024566
      dxy     :     0.033246

 10 C s       :     2.904159  s :     2.904159
      pz      :     1.029273  p :     3.155941
      px      :     1.084487
      py      :     1.042181
      dz2     :     0.005894  d :     0.074791
      dxz     :     0.008803
      dyz     :     0.003572
      dx2y2   :     0.023260
      dxy     :     0.033262

 11 C s       :     2.743400  s :     2.743400
      pz      :     0.739056  p :     2.641851
      px      :     0.974677
      py      :     0.928118
      dz2     :     0.017886  d :     0.264441
      dxz     :     0.045178
      dyz     :     0.020982
      dx2y2   :     0.064892
      dxy     :     0.115503

 12 O s       :     3.555765  s :     3.555765
      pz      :     1.439424  p :     4.668587
      px      :     1.474109
      py      :     1.755054
      dz2     :     0.027489  d :     0.207821
      dxz     :     0.046659
      dyz     :     0.008720
      dx2y2   :     0.056167
      dxy     :     0.068785

 13 O s       :     3.498122  s :     3.498122
      pz      :     1.756371  p :     4.693696
      px      :     1.612951
      py      :     1.324375
      dz2     :     0.033982  d :     0.239213
      dxz     :     0.025081
      dyz     :     0.032852
      dx2y2   :     0.067819
      dxy     :     0.079478

 14 H s       :     0.775809  s :     0.775809
      pz      :     0.009495  p :     0.044216
      px      :     0.014731
      py      :     0.019991

 15 H s       :     0.633520  s :     0.633520
      pz      :     0.022011  p :     0.085447
      px      :     0.011673
      py      :     0.051764

 16 H s       :     0.779874  s :     0.779874
      pz      :     0.009087  p :     0.044401
      px      :     0.008567
      py      :     0.026747

 17 H s       :     0.781895  s :     0.781895
      pz      :     0.009822  p :     0.045052
      px      :     0.027461
      py      :     0.007768

 18 H s       :     0.590242  s :     0.590242
      pz      :     0.030016  p :     0.119240
      px      :     0.041249
      py      :     0.047975

 19 H s       :     0.750005  s :     0.750005
      pz      :     0.007192  p :     0.045473
      px      :     0.013810
      py      :     0.024471

 20 H s       :     0.761509  s :     0.761509
      pz      :     0.009808  p :     0.043917
      px      :     0.025249
      py      :     0.008860

 21 H s       :     0.773160  s :     0.773160
      pz      :     0.007808  p :     0.040379
      px      :     0.013817
      py      :     0.018753



                      *****************************
                      * MAYER POPULATION ANALYSIS *
                      *****************************

  NA   - Mulliken gross atomic population
  ZA   - Total nuclear charge
  QA   - Mulliken gross atomic charge
  VA   - Mayer's total valence
  BVA  - Mayer's bonded valence
  FA   - Mayer's free valence

  ATOM       NA         ZA         QA         VA         BVA        FA
  0 N      7.0394     7.0000    -0.0394     3.4092     3.4092     0.0000
  1 C      6.1591     6.0000    -0.1591     3.6917     3.6917     0.0000
  2 C      6.0196     6.0000    -0.0196     3.5647     3.5647     0.0000
  3 C      5.6466     6.0000     0.3534     3.7749     3.7749     0.0000
  4 C      5.9815     6.0000     0.0185     3.8734     3.8734     0.0000
  5 C      6.3592     6.0000    -0.3592     3.8184     3.8184    -0.0000
  6 C      6.0951     6.0000    -0.0951     3.7032     3.7032    -0.0000
  7 C      6.0953     6.0000    -0.0953     3.9384     3.9384     0.0000
  8 N      7.2123     7.0000    -0.2123     3.0377     3.0377     0.0000
  9 C      6.2601     6.0000    -0.2601     3.6301     3.6301     0.0000
 10 C      6.1683     6.0000    -0.1683     3.7529     3.7529     0.0000
 11 C      5.7217     6.0000     0.2783     4.1666     4.1666     0.0000
 12 O      8.3965     8.0000    -0.3965     2.0181     2.0181     0.0000
 13 O      8.3618     8.0000    -0.3618     1.9374     1.9374     0.0000
 14 H      0.8488     1.0000     0.1512     0.9672     0.9672     0.0000
 15 H      0.7401     1.0000     0.2599     0.9158     0.9158     0.0000
 16 H      0.8513     1.0000     0.1487     0.9727     0.9727    -0.0000
 17 H      0.8444     1.0000     0.1556     0.9682     0.9682     0.0000
 18 H      0.6749     1.0000     0.3251     0.9030     0.9030     0.0000
 19 H      0.8081     1.0000     0.1919     0.9518     0.9518     0.0000
 20 H      0.8552     1.0000     0.1448     0.9774     0.9774     0.0000
 21 H      0.8605     1.0000     0.1395     0.9671     0.9671     0.0000

  Mayer bond orders larger than 0.100000
B(  0-N ,  1-C ) :   1.1844 B(  0-N ,  4-C ) :   1.1570 B(  0-N , 15-H ) :   0.9065 
B(  1-C ,  2-C ) :   1.4347 B(  1-C , 20-H ) :   0.9490 B(  2-C ,  3-C ) :   1.0838 
B(  2-C ,  9-C ) :   0.9645 B(  3-C ,  4-C ) :   1.2782 B(  3-C ,  8-N ) :   1.3559 
B(  4-C ,  5-C ) :   1.2716 B(  5-C ,  6-C ) :   1.4128 B(  5-C , 16-H ) :   0.9273 
B(  6-C ,  7-C ) :   1.3074 B(  6-C , 17-H ) :   0.9366 B(  7-C ,  8-N ) :   1.4973 
B(  7-C , 21-H ) :   0.9812 B(  9-C , 10-C ) :   1.5984 B(  9-C , 19-H ) :   0.9878 
B( 10-C , 11-C ) :   1.1220 B( 10-C , 14-H ) :   0.9317 B( 11-C , 12-O ) :   1.9083 
B( 11-C , 13-O ) :   1.0304 B( 13-O , 18-H ) :   0.8675 

-------
TIMINGS
-------

Total SCF time: 0 days 0 hours 0 min 2 sec 

Total time                  ....       2.211 sec
Sum of individual times     ....       2.088 sec  ( 94.5%)

SCF preparation             ....       0.062 sec  (  2.8%)
Fock matrix formation       ....       1.778 sec  ( 80.4%)
  Startup                   ....       0.004 sec  (  0.2% of F)
  Split-RI-J                ....       0.438 sec  ( 24.7% of F)
  XC integration            ....       1.373 sec  ( 77.2% of F)
    XC Preparation          ....       0.000 sec  (  0.0% of XC)
    Basis function eval.    ....       0.168 sec  ( 12.3% of XC)
    Density eval.           ....       0.379 sec  ( 27.6% of XC)
    XC-Functional eval.     ....       0.095 sec  (  6.9% of XC)
    XC-Potential eval.      ....       0.530 sec  ( 38.6% of XC)
Diagonalization             ....       0.000 sec  (  0.0%)
Density matrix formation    ....       0.024 sec  (  1.1%)
Total Energy calculation    ....       0.011 sec  (  0.5%)
Population analysis         ....       0.010 sec  (  0.4%)
Orbital Transformation      ....       0.021 sec  (  0.9%)
Orbital Orthonormalization  ....       0.000 sec  (  0.0%)
DIIS solution               ....       0.090 sec  (  4.1%)
SOSCF solution              ....       0.092 sec  (  4.2%)
Finished LeanSCF after   2.2 sec

Maximum memory used throughout the entire LEANSCF-calculation: 20.5 MB


-------------------------------------------------------------------------------
                          DFT DISPERSION CORRECTION                            
                                                                               
                                DFTD4 V3.4.0                                   
-------------------------------------------------------------------------------
The R2SCAN3C composite method is recognized
Using three-body term ABC
Active option DFTDOPT                   ...         5   

-------------------------   ----------------
Dispersion correction           -0.008637173
-------------------------   ----------------

------------------   -----------------
gCP correction             0.011136433
------------------   -----------------

-------------------------   --------------------
FINAL SINGLE POINT ENERGY      -645.722444936119
-------------------------   --------------------



           ************************************************************
           *        Program running with 16 parallel MPI-processes    *
           *              working on a common directory               *
           ************************************************************

------------------------------------------------------------------------------
                              ORCA PROPERTY CALCULATIONS
------------------------------------------------------------------------------

GBWName                                 ... LUMO.gbw
Number of atoms                         ...     22
Number of basis functions               ...    326
Max core memory                         ...   4096 MB

Electric properties:
Dipole moment                           ... YES
Quadrupole moment                       ...  NO
Static polarizability (Dipole/Dipole)   ...  NO
Static polarizability (Dipole/Quad.)    ...  NO
Static polarizability (Quad./Quad.)     ...  NO
Static polarizability (Velocity)        ...  NO
Static hyperpolarizability              ...  NO

Atomic electric properties:
Dipole moment                           ...  NO
Quadrupole moment                       ...  NO
Static polarizability                   ...  NO

Choice of electric origin               ... Center of mass
Position of electric origin             ...    -2.586814    -2.243652     0.586250

General magnetic properties:
Magnetizability                         ...  NO

EPR properties:
g-Tensor (aka g-matrix)                 ...  NO
Zero-Field splitting spin-orbit         ...  NO
Zero-field splitting spin-spin          ...  NO
Hyperfine couplings                     ...  NO (   0 nuclei)
Quadrupole couplings                    ...  NO (   0 nuclei)
Contact density                         ...  NO (   0 nuclei)

NMR properties:
Chemical shifts                         ...  NO (   0 nuclei)
Spin-rotation constants                 ...  NO (   0 nuclei)
Spin-spin couplings                     ...  NO (   0 nuclei,    0 pairs)

Choice of magnetic origin               ... GIAO
Position of magnetic origin             ...     0.000000     0.000000     0.000000

Properties with geometric perturbations:
SCF Hessian                             ...  NO
IR spectrum                             ...  NO
VCD spectrum                            ...  NO
X-ray spectroscopy properties:
SCF XES/XAS/RIXS spectra                ...  NO

SCF SOC stabilization energy            ...  NO
Diagonal Born-Oppenheimer correction    ...  NO

-------------
DIPOLE MOMENT
-------------

Method             : SCF
Type of density    : Electron Density
Multiplicity       :   1
Irrep              :   0
Energy             :  -645.7249441960381091 Eh
Basis              : AO
                                X                 Y                 Z
Electronic contribution:     -2.777244159      -1.581844381       0.521061324
Nuclear contribution   :      4.063234480       3.721921144      -0.907745707
                        -----------------------------------------
Total Dipole Moment    :      1.285990321       2.140076763      -0.386684383
                        -----------------------------------------
Magnitude (a.u.)       :      2.526504397
Magnitude (Debye)      :      6.421863824



--------------------
Rotational spectrum 
--------------------
 
Rotational constants in cm-1:             0.061112             0.011047             0.009356 
Rotational constants in MHz :          1832.088429           331.172260           280.473356 

Dipole components along the rotational axes: 
x,y,z [a.u.] :    -2.276934    -1.094895    -0.000150 
x,y,z [Debye]:    -5.787506    -2.783003    -0.000382 

 

Dipole moment calculation done in   0.0 sec 

Maximum memory used throughout the entire PROP-calculation: 16.5 MB

--------------------------------
SUGGESTED CITATIONS FOR THIS RUN
--------------------------------

Below you find a list of papers that are relevant to this ORCA run
We neither can nor want to force you to cite these papers, but we appreciate if you do
You receive ORCA, which is the product of decades of hard work by many enthusiastic individuals, for free
The only thing we kindly ask in return is that you cite our papers,
We deeply appreciate it, if you show your appreciation for ORCA by not just citing the generic ORCA reference.

Please note that relegating all ORCA citations to the supporting information does *not* help us.
SI sections are not indexed - citations you put there will not count into any citation statistics
But we need these citations in order to attract the funding resources that allow us to do what we are doing

Therefore, if you are a happy ORCA user, please consider citing a few of the papers listed below in the main body of your paper

In addition to the list printed below, the program has created the file LUMO.bibtex that contains the list in bibtex format
You can import this file easily into all common literature databanks and citation aid programs

It goes without saying that in many instances, there are alternative algorithms to achieve similar
results as the ones you have gotten from ORCA. It is, of course, also the case that in some instances
ORCA just re-implements algorithms worked out by others. We are fully aware of that and we are also
fully appreciative of our colleagues work. Hence this citation list should not be read as indicating
that the listed papers, which are focused on our own work, are the only ones worth citing. It simply
meant to make it easier for users to cite ORCA specific papers. It is not a substitute for doing your
own literature research and citing the relevant literature in a scientifically appropriate manner.

List of essential papers. We consider these as the minimum necessary citations

  1. Grimme, S.; Hansen, A.; Ehlert, S.; Mewes, J.
     r2SCAN-3c: A 'Swiss army knife' composite electronic-structure method
     J. Chem. Phys. 2021 154 , 064103
     doi.org/10.1063/5.0040021
  2. Neese, F.
     Software update: the ORCA program system, version 6.0
     WIRES Comput. Molec. Sci. 2025 15(1), e70019
     doi.org/10.1002/wcms.70019

List of papers to cite with high priority. The work reported in these papers was absolutely
necessary for this run to complete.
Our perspective: the developers of density functionals and basis sets usually get cited in chemistry papers
Good! But without the algorithms to do something with them, the functionals or basis sets would not do anything.
Hence, in our opinion, the algorithm design and method developments papers are equally worthy of getting cited

  1. Neese, F.
     An improvement of the resolution of the identity approximation for the formation of the Coulomb matrix
     J. Comp. Chem. 2003 24(14), 1740-1747
     doi.org/10.1002/jcc.10318
  2. Caldeweyher, E.; Bannwarth, C.; Grimme, S.
     Extension of the D3 dispersion coefficient model
     J. Chem. Phys. 2017 147 , 034112
     doi.org/10.1063/1.4993215
  3. Lehtola, S.; Steigemann, C.; Oliveira, M.; Marques, M.
     Recent developments in Libxc - A comprehensive library of functionals for density functional theory
     Software X 2018 7 , 
     doi.org/10.1016/j.softx.2017.11.002
  4. Caldeweyher, E.; Ehlert, S.; Hansen, A.; Neugebauer, H.; Spicher, S.; Bannwarth, C.; Grimme, S.
     A generally applicable atomic-charge dependent London dispersion correction
     J. Chem. Phys. 2019 150 , 154122
     doi.org/10.1063/1.5090222
  5. Neese, F.
     The SHARK Integral Generation and Digestion System
     J. Comp. Chem. 2022 44(3), 381
     doi.org/10.1002/jcc.26942

List of suggested additional citations. These are papers that are important in the 'surrounding' of 
of this run, or papers that preceded the highly important papers. If you like your results we are grateful for a citation.

  1. Neese, F.
     The ORCA program system
     WIRES Comput. Molec. Sci. 2012 2(1), 73-78
     doi.org/10.1002/wcms.81
  2. Neese, F.
     Software update: the ORCA program system, version 4.0
     WIRES Comput. Molec. Sci. 2018 8(1), 1-6
     doi.org/10.1002/wcms.1327
  3. Neese, F.; Wennmohs, F.; Becker, U.; Riplinger, C.
     The ORCA quantum chemistry program package
     J. Chem. Phys. 2020 152(22), 224108
     doi.org/10.1063/5.0004608
  4. Neese, F.
     Software update: The ORCA program system—Version 5.0
     WIRES Comput. Molec. Sci. 2022 12(1), e1606
     doi.org/10.1002/wcms.1606

List of optional additional citations

  1. Neese, F.
     Approximate second-order SCF convergence for spin unrestricted wavefunctions
     Chem. Phys. Lett. 2000 325(1-3), 93-98
     doi.org/10.1016/s0009-2614(00)00662-x

Timings for individual modules:

Sum of individual times          ...        4.285 sec (=   0.071 min)
Startup calculation              ...        0.874 sec (=   0.015 min)  20.4 %
SCF iterations                   ...        3.027 sec (=   0.050 min)  70.6 %
Property calculations            ...        0.385 sec (=   0.006 min)   9.0 %
                             ****ORCA TERMINATED NORMALLY****
TOTAL RUN TIME: 0 days 0 hours 0 minutes 4 seconds 654 msec
