[Molden Format]
[Title]
 Molden file created by orca_2mkl for BaseName=LUMO

[Atoms] AU
N    1   7         -2.0286260441         2.3837228406         0.0330330980 
N    2   7         -3.9602669211         0.7924554103         0.4459790336 
C    3   6         -2.9602704931        -1.5217525150         0.5596666645 
C    4   6         -0.2749310034        -1.4083880599         0.2048404880 
C    5   6          0.2566497146         1.1854372963        -0.1338658280 
C    6   6          2.6989963845         2.0997179335        -0.5415828685 
C    7   6          4.6175189096         0.3255671873        -0.6014721332 
C    8   6          4.1314066211        -2.2732025172        -0.2679113731 
C    9   6          1.7073810891        -3.1625223808         0.1347515250 
C   10   6         -4.4696869935        -3.7500158016         0.9846324121 
C   11   6         -6.9907215186        -3.7736105926         1.3058541439 
C   12   6         -8.4589194967        -6.0737846113         1.7343415015 
O   13   8        -10.7349249881        -6.1138980701         2.0319800785 
O   14   8         -7.0380571021        -8.2293688274         1.7754202565 
H   15   1         -8.0898257743        -2.0431757875         1.2636342335 
H   16   1         -2.3847366357         4.2479717977        -0.1162035513 
H   17   1          3.0807782393         4.0989046495        -0.7992844075 
H   18   1          6.5481762251         0.9466206494        -0.9131181154 
H   19   1          5.6997275328        -3.5938809386        -0.3304475769 
H   20   1          1.3566233817        -5.1685404143         0.3888591867 
H   21   1         -8.2210165640        -9.5955118107         2.0706275242 
H   22   1         -3.4451535538        -5.5303834027         1.0419099033 
[GTO]
  1 0
s   6 1.0 
    19730.8006470000         0.6956035199
     2957.8958745000         1.2986099328
      673.2213359500         2.2190880635
      190.6824949400         3.4636607549
       62.2954418980         4.6967555531
       22.6541611820         4.9522510945
s   2 1.0 
        8.9791477428         2.3880677979
        3.6863002370         0.7337878750
s   1 1.0 
        0.8466007680         0.6290267082
s   1 1.0 
        0.3364713377         0.3148626514
s   1 1.0 
        0.1364765368         0.1600308040
p   4 1.0 
       49.2003805100         2.1264813968
       11.3467905370         2.3279367185
        3.4273972411         2.0485729192
        1.1785525134         1.2607319854
p   1 1.0 
        0.4164220497         0.4768230427
p   1 1.0 
        0.1426082601         0.1249168256
d   1 1.0 
        1.1000000000         3.3682729889
d   1 1.0 
        0.2000000000         0.1705189210

  2 0
s   6 1.0 
    19730.8006470000         0.6956035199
     2957.8958745000         1.2986099328
      673.2213359500         2.2190880635
      190.6824949400         3.4636607549
       62.2954418980         4.6967555531
       22.6541611820         4.9522510945
s   2 1.0 
        8.9791477428         2.3880677979
        3.6863002370         0.7337878750
s   1 1.0 
        0.8466007680         0.6290267082
s   1 1.0 
        0.3364713377         0.3148626514
s   1 1.0 
        0.1364765368         0.1600308040
p   4 1.0 
       49.2003805100         2.1264813968
       11.3467905370         2.3279367185
        3.4273972411         2.0485729192
        1.1785525134         1.2607319854
p   1 1.0 
        0.4164220497         0.4768230427
p   1 1.0 
        0.1426082601         0.1249168256
d   1 1.0 
        1.1000000000         3.3682729889
d   1 1.0 
        0.2000000000         0.1705189210

  3 0
s   6 1.0 
    13575.3496820000         0.5435905310
     2035.2333680000         1.0145543947
      463.2256235900         1.7315731970
      131.2001959800         2.6910376290
       42.8530158910         3.6044547126
       15.5841857660         3.7025556986
s   2 1.0 
        6.2067138508         1.8383540830
        2.5764896527         0.5447575605
s   1 1.0 
        0.5769633942         0.4718145038
s   1 1.0 
        0.2297283136         0.2364944676
s   1 1.0 
        0.0951644400         0.1221141848
p   4 1.0 
       34.6972322440         1.3596651510
        7.9582622826         1.4512589489
        2.3780826883         1.2709231421
        0.8143320818         0.8025721189
p   1 1.0 
        0.2888754725         0.3018758868
p   1 1.0 
        0.1005682367         0.0807265016
d   1 1.0 
        0.8000000000         1.9292013661

  4 0
s   6 1.0 
    13575.3496820000         0.5435905310
     2035.2333680000         1.0145543947
      463.2256235900         1.7315731970
      131.2001959800         2.6910376290
       42.8530158910         3.6044547126
       15.5841857660         3.7025556986
s   2 1.0 
        6.2067138508         1.8383540830
        2.5764896527         0.5447575605
s   1 1.0 
        0.5769633942         0.4718145038
s   1 1.0 
        0.2297283136         0.2364944676
s   1 1.0 
        0.0951644400         0.1221141848
p   4 1.0 
       34.6972322440         1.3596651510
        7.9582622826         1.4512589489
        2.3780826883         1.2709231421
        0.8143320818         0.8025721189
p   1 1.0 
        0.2888754725         0.3018758868
p   1 1.0 
        0.1005682367         0.0807265016
d   1 1.0 
        0.8000000000         1.9292013661

  5 0
s   6 1.0 
    13575.3496820000         0.5435905310
     2035.2333680000         1.0145543947
      463.2256235900         1.7315731970
      131.2001959800         2.6910376290
       42.8530158910         3.6044547126
       15.5841857660         3.7025556986
s   2 1.0 
        6.2067138508         1.8383540830
        2.5764896527         0.5447575605
s   1 1.0 
        0.5769633942         0.4718145038
s   1 1.0 
        0.2297283136         0.2364944676
s   1 1.0 
        0.0951644400         0.1221141848
p   4 1.0 
       34.6972322440         1.3596651510
        7.9582622826         1.4512589489
        2.3780826883         1.2709231421
        0.8143320818         0.8025721189
p   1 1.0 
        0.2888754725         0.3018758868
p   1 1.0 
        0.1005682367         0.0807265016
d   1 1.0 
        0.8000000000         1.9292013661

  6 0
s   6 1.0 
    13575.3496820000         0.5435905310
     2035.2333680000         1.0145543947
      463.2256235900         1.7315731970
      131.2001959800         2.6910376290
       42.8530158910         3.6044547126
       15.5841857660         3.7025556986
s   2 1.0 
        6.2067138508         1.8383540830
        2.5764896527         0.5447575605
s   1 1.0 
        0.5769633942         0.4718145038
s   1 1.0 
        0.2297283136         0.2364944676
s   1 1.0 
        0.0951644400         0.1221141848
p   4 1.0 
       34.6972322440         1.3596651510
        7.9582622826         1.4512589489
        2.3780826883         1.2709231421
        0.8143320818         0.8025721189
p   1 1.0 
        0.2888754725         0.3018758868
p   1 1.0 
        0.1005682367         0.0807265016
d   1 1.0 
        0.8000000000         1.9292013661

  7 0
s   6 1.0 
    13575.3496820000         0.5435905310
     2035.2333680000         1.0145543947
      463.2256235900         1.7315731970
      131.2001959800         2.6910376290
       42.8530158910         3.6044547126
       15.5841857660         3.7025556986
s   2 1.0 
        6.2067138508         1.8383540830
        2.5764896527         0.5447575605
s   1 1.0 
        0.5769633942         0.4718145038
s   1 1.0 
        0.2297283136         0.2364944676
s   1 1.0 
        0.0951644400         0.1221141848
p   4 1.0 
       34.6972322440         1.3596651510
        7.9582622826         1.4512589489
        2.3780826883         1.2709231421
        0.8143320818         0.8025721189
p   1 1.0 
        0.2888754725         0.3018758868
p   1 1.0 
        0.1005682367         0.0807265016
d   1 1.0 
        0.8000000000         1.9292013661

  8 0
s   6 1.0 
    13575.3496820000         0.5435905310
     2035.2333680000         1.0145543947
      463.2256235900         1.7315731970
      131.2001959800         2.6910376290
       42.8530158910         3.6044547126
       15.5841857660         3.7025556986
s   2 1.0 
        6.2067138508         1.8383540830
        2.5764896527         0.5447575605
s   1 1.0 
        0.5769633942         0.4718145038
s   1 1.0 
        0.2297283136         0.2364944676
s   1 1.0 
        0.0951644400         0.1221141848
p   4 1.0 
       34.6972322440         1.3596651510
        7.9582622826         1.4512589489
        2.3780826883         1.2709231421
        0.8143320818         0.8025721189
p   1 1.0 
        0.2888754725         0.3018758868
p   1 1.0 
        0.1005682367         0.0807265016
d   1 1.0 
        0.8000000000         1.9292013661

  9 0
s   6 1.0 
    13575.3496820000         0.5435905310
     2035.2333680000         1.0145543947
      463.2256235900         1.7315731970
      131.2001959800         2.6910376290
       42.8530158910         3.6044547126
       15.5841857660         3.7025556986
s   2 1.0 
        6.2067138508         1.8383540830
        2.5764896527         0.5447575605
s   1 1.0 
        0.5769633942         0.4718145038
s   1 1.0 
        0.2297283136         0.2364944676
s   1 1.0 
        0.0951644400         0.1221141848
p   4 1.0 
       34.6972322440         1.3596651510
        7.9582622826         1.4512589489
        2.3780826883         1.2709231421
        0.8143320818         0.8025721189
p   1 1.0 
        0.2888754725         0.3018758868
p   1 1.0 
        0.1005682367         0.0807265016
d   1 1.0 
        0.8000000000         1.9292013661

 10 0
s   6 1.0 
    13575.3496820000         0.5435905310
     2035.2333680000         1.0145543947
      463.2256235900         1.7315731970
      131.2001959800         2.6910376290
       42.8530158910         3.6044547126
       15.5841857660         3.7025556986
s   2 1.0 
        6.2067138508         1.8383540830
        2.5764896527         0.5447575605
s   1 1.0 
        0.5769633942         0.4718145038
s   1 1.0 
        0.2297283136         0.2364944676
s   1 1.0 
        0.0951644400         0.1221141848
p   4 1.0 
       34.6972322440         1.3596651510
        7.9582622826         1.4512589489
        2.3780826883         1.2709231421
        0.8143320818         0.8025721189
p   1 1.0 
        0.2888754725         0.3018758868
p   1 1.0 
        0.1005682367         0.0807265016
d   1 1.0 
        0.8000000000         1.9292013661

 11 0
s   6 1.0 
    13575.3496820000         0.5435905310
     2035.2333680000         1.0145543947
      463.2256235900         1.7315731970
      131.2001959800         2.6910376290
       42.8530158910         3.6044547126
       15.5841857660         3.7025556986
s   2 1.0 
        6.2067138508         1.8383540830
        2.5764896527         0.5447575605
s   1 1.0 
        0.5769633942         0.4718145038
s   1 1.0 
        0.2297283136         0.2364944676
s   1 1.0 
        0.0951644400         0.1221141848
p   4 1.0 
       34.6972322440         1.3596651510
        7.9582622826         1.4512589489
        2.3780826883         1.2709231421
        0.8143320818         0.8025721189
p   1 1.0 
        0.2888754725         0.3018758868
p   1 1.0 
        0.1005682367         0.0807265016
d   1 1.0 
        0.8000000000         1.9292013661

 12 0
s   6 1.0 
    13575.3496820000         0.5435905310
     2035.2333680000         1.0145543947
      463.2256235900         1.7315731970
      131.2001959800         2.6910376290
       42.8530158910         3.6044547126
       15.5841857660         3.7025556986
s   2 1.0 
        6.2067138508         1.8383540830
        2.5764896527         0.5447575605
s   1 1.0 
        0.5769633942         0.4718145038
s   1 1.0 
        0.2297283136         0.2364944676
s   1 1.0 
        0.0951644400         0.1221141848
p   4 1.0 
       34.6972322440         1.3596651510
        7.9582622826         1.4512589489
        2.3780826883         1.2709231421
        0.8143320818         0.8025721189
p   1 1.0 
        0.2888754725         0.3018758868
p   1 1.0 
        0.1005682367         0.0807265016
d   1 1.0 
        0.8000000000         1.9292013661

 13 0
s   6 1.0 
    27032.3826310000         0.8598581479
     4052.3871392000         1.6055305368
      922.3272271000         2.7458778516
      261.2407098900         4.2987674426
       85.3546413510         5.8797663284
       31.0350352450         6.3163983216
s   2 1.0 
       12.2608607280         2.9812147522
        4.9987076005         0.9419559635
s   1 1.0 
        1.1703108158         0.8019291610
s   1 1.0 
        0.4647474099         0.4011648062
s   1 1.0 
        0.1850453636         0.2010799406
p   4 1.0 
       63.2749548010         3.0572017144
       14.6270493790         3.3844839414
        4.4501223456         2.9474262132
        1.5275799647         1.7118271494
p   1 1.0 
        0.5293511794         0.6436057926
p   1 1.0 
        0.1747842127         0.1610897254
d   1 1.0 
        1.2000000000         3.9222679946
d   1 1.0 
        0.2000000000         0.1705189210

 14 0
s   6 1.0 
    27032.3826310000         0.8598581479
     4052.3871392000         1.6055305368
      922.3272271000         2.7458778516
      261.2407098900         4.2987674426
       85.3546413510         5.8797663284
       31.0350352450         6.3163983216
s   2 1.0 
       12.2608607280         2.9812147522
        4.9987076005         0.9419559635
s   1 1.0 
        1.1703108158         0.8019291610
s   1 1.0 
        0.4647474099         0.4011648062
s   1 1.0 
        0.1850453636         0.2010799406
p   4 1.0 
       63.2749548010         3.0572017144
       14.6270493790         3.3844839414
        4.4501223456         2.9474262132
        1.5275799647         1.7118271494
p   1 1.0 
        0.5293511794         0.6436057926
p   1 1.0 
        0.1747842127         0.1610897254
d   1 1.0 
        1.2000000000         3.9222679946
d   1 1.0 
        0.2000000000         0.1705189210

 15 0
s   3 1.0 
       18.7354104400         0.2149136950
        2.8256504000         0.3645880840
        0.6401347000         0.4150643621
s   1 1.0 
        0.1756074600         0.1933380407
p   1 1.0 
        1.0000000000         1.4254109407

 16 0
s   3 1.0 
       18.7354104400         0.2149136950
        2.8256504000         0.3645880840
        0.6401347000         0.4150643621
s   1 1.0 
        0.1756074600         0.1933380407
p   1 1.0 
        1.0000000000         1.4254109407

 17 0
s   3 1.0 
       18.7354104400         0.2149136950
        2.8256504000         0.3645880840
        0.6401347000         0.4150643621
s   1 1.0 
        0.1756074600         0.1933380407
p   1 1.0 
        1.0000000000         1.4254109407

 18 0
s   3 1.0 
       18.7354104400         0.2149136950
        2.8256504000         0.3645880840
        0.6401347000         0.4150643621
s   1 1.0 
        0.1756074600         0.1933380407
p   1 1.0 
        1.0000000000         1.4254109407

 19 0
s   3 1.0 
       18.7354104400         0.2149136950
        2.8256504000         0.3645880840
        0.6401347000         0.4150643621
s   1 1.0 
        0.1756074600         0.1933380407
p   1 1.0 
        1.0000000000         1.4254109407

 20 0
s   3 1.0 
       18.7354104400         0.2149136950
        2.8256504000         0.3645880840
        0.6401347000         0.4150643621
s   1 1.0 
        0.1756074600         0.1933380407
p   1 1.0 
        1.0000000000         1.4254109407

 21 0
s   3 1.0 
       18.7354104400         0.2149136950
        2.8256504000         0.3645880840
        0.6401347000         0.4150643621
s   1 1.0 
        0.1756074600         0.1933380407
p   1 1.0 
        1.0000000000         1.4254109407

 22 0
s   3 1.0 
       18.7354104400         0.2149136950
        2.8256504000         0.3645880840
        0.6401347000         0.4150643621
s   1 1.0 
        0.1756074600         0.1933380407
p   1 1.0 
        1.0000000000         1.4254109407

[5D]
[7F]
[9G]
[MO]
 Sym=     1a
 Ene= -1.89920238512470E+01
 Spin= Alpha
 Occup= 2.000000
  1       0.000000642807
  2      -0.000003800116
  3       0.000030906686
  4      -0.000140245711
  5      -0.005245939495
  6      -0.000003843865
  7      -0.000012218574
  8       0.000001755042
  9       0.000042957932
 10       0.000095752109
 11      -0.000015447732
 12       0.002093492217
 13       0.002100688091
 14      -0.000486143536
 15       0.000000646868
 16       0.000000044155
 17       0.000000898841
 18       0.000003557541
 19      -0.000003164050
 20      -0.000062864991
 21       0.000011342042
 22       0.000054100718
 23       0.000133815775
 24      -0.000398662166
 25       0.000001998819
 26      -0.000011939588
 27       0.000113597387
 28      -0.000546174704
 29       0.007365648541
 30      -0.000007216876
 31       0.000000904446
 32       0.000000720864
 33       0.000025036827
 34       0.000003909256
 35      -0.000003121134
 36       0.003096188298
 37       0.001795813601
 38      -0.000585686953
 39      -0.000001773084
 40       0.000000990081
 41      -0.000002049695
 42      -0.000012636435
 43       0.000002673711
 44      -0.000069022877
 45      -0.000118610647
 46       0.000011762781
 47       0.000570169315
 48       0.000268335200
 49       0.000002306103
 50      -0.000011272793
 51       0.000064628560
 52       0.000133949601
 53       0.008562723446
 54       0.000024950192
 55       0.000001291309
 56      -0.000003361148
 57      -0.000365797599
 58      -0.000023126063
 59       0.000049336492
 60      -0.001859790132
 61      -0.007979850281
 62       0.001075367720
 63      -0.000012417956
 64      -0.000003168440
 65      -0.000003566747
 66      -0.000003503056
 67       0.000007497692
 68       0.000001055896
 69      -0.000005037709
 70      -0.000022979349
 71       0.000428275101
 72      -0.004908487454
 73       0.000002316354
 74      -0.000027085236
 75       0.000002594464
 76      -0.000117252032
 77       0.000218687391
 78      -0.000008138913
 79       0.001874306279
 80      -0.001158042246
 81      -0.000119642215
 82      -0.000015833704
 83      -0.000003492401
 84      -0.000003755199
 85      -0.000003311342
 86       0.000003494126
 87       0.000000924929
 88      -0.000004869606
 89       0.000119744237
 90      -0.000977081226
 91       0.001368962622
 92      -0.000016664559
 93      -0.000009539281
 94       0.000003049133
 95       0.000175869955
 96       0.000110201361
 97      -0.000033668309
 98      -0.005063747960
 99      -0.003608061315
100       0.001023105164
101       0.000018554138
102       0.000005015977
103       0.000006441583
104       0.000007985374
105      -0.000016727649
106      -0.000002144536
107       0.000010584836
108      -0.000103510322
109       0.000400421777
110       0.005740580452
111       0.000012270266
112      -0.000002052431
113      -0.000001359052
114      -0.000115524780
115       0.000005052778
116       0.000014223843
117      -0.001611335334
118      -0.000771542719
119       0.000287031211
120      -0.000001137026
121      -0.000001235759
122      -0.000000907035
123       0.000001877859
124       0.000006742731
125      -0.000001243450
126       0.000006150894
127      -0.000068846295
128       0.000283525607
129      -0.002194007557
130      -0.000002758802
131      -0.000001851276
132       0.000000548337
133       0.000003166527
134       0.000003185552
135      -0.000000765328
136       0.000799569452
137       0.000433821267
138      -0.000147433029
139      -0.000006475600
140      -0.000001044310
141      -0.000001502027
142      -0.000003146278
143      -0.000000307881
144      -0.000000597054
145       0.000002806878
146       0.000018877785
147      -0.000243693065
148       0.004352589959
149       0.000009301267
150       0.000004868883
151      -0.000001723588
152       0.000029825060
153       0.000006497542
154      -0.000004390433
155      -0.001297839211
156       0.000335528348
157       0.000130455300
158       0.000010500994
159       0.000004406755
160       0.000002119808
161      -0.000008860423
162      -0.000008231007
163       0.000000895947
164      -0.000004359023
165       0.000028177167
166       0.000037224292
167      -0.003530146998
168      -0.000041196432
169      -0.000004739525
170       0.000005808250
171       0.000219978759
172       0.000078506114
173      -0.000036481093
174      -0.001527083236
175      -0.001289720746
176       0.000330642714
177      -0.000001365199
178      -0.000002153798
179       0.000001795834
180       0.000016247462
181      -0.000002487145
182      -0.000004402227
183       0.000021252071
184      -0.000037525618
185      -0.000743471182
186       0.000736195818
187       0.000032725773
188       0.000103188549
189      -0.000014985121
190       0.000149369826
191      -0.000393687317
192       0.000022838973
193      -0.009048901035
194      -0.002791664534
195       0.001433920424
196       0.000004895428
197       0.000006198389
198       0.000004593491
199      -0.000009912992
200      -0.000035719931
201      -0.000007746715
202       0.000039304739
203      -0.000430927743
204       0.000983533593
205      -0.016928477334
206      -0.000034835791
207       0.000058941941
208      -0.000001520554
209       0.000419632523
210      -0.000005960234
211      -0.000053741713
212      -0.005070994924
213       0.003769535359
214       0.000250223135
215      -0.000083785172
216      -0.000009650390
217      -0.000012948094
218      -0.000035235213
219      -0.000046239622
220      -0.000027953074
221       0.000146746022
222      -0.000369883909
223       0.001279699706
224       0.009261351714
225      -0.000181148919
226       0.000227701172
227      -0.000000367741
228       0.000446204613
229       0.000394576011
230      -0.000098274148
231       0.005262123452
232      -0.000868871990
233      -0.000586513870
234       0.000268183125
235       0.000005791041
236       0.000030829220
237       0.000188958414
238       0.000291317981
239       0.000007473787
240      -0.000002909934
241       0.000129575698
242      -0.000810025208
243       0.002454927940
244      -0.000078355723
245       0.000020163736
246       0.000008077759
247       0.000253344135
248      -0.000005577704
249      -0.000032378897
250       0.000439325590
251      -0.000722966316
252       0.000019078135
253      -0.000051923617
254      -0.000013641881
255      -0.000003659530
256       0.000030866797
257      -0.000021699506
258      -0.000249073657
259       0.000005225325
260       0.000052721645
261       0.000085067980
262      -0.000679165315
263      -0.435522356333
264      -0.639188550563
265      -0.034489897888
266       0.023200161556
267      -0.017517950366
268       0.001634744296
269      -0.000235855220
270      -0.000187006285
271      -0.001917298332
272       0.000701046777
273       0.000175493090
274       0.002857279041
275      -0.002653647361
276      -0.000094669875
277      -0.000185786672
278      -0.000031258328
279      -0.000040049504
280      -0.000074902227
281      -0.000015996633
282       0.000545684890
283       0.000050557873
284       0.000070237462
285       0.000233837685
286       0.000410335215
287       0.000027232030
288      -0.000645263145
289      -0.000031613447
290      -0.000003952025
291       0.000004444990
292      -0.000018058087
293      -0.000291521849
294       0.000005115562
295       0.000005789689
296      -0.000001264223
297      -0.000017462735
298       0.000070090060
299      -0.000002026516
300      -0.000000453152
301       0.000000287013
302      -0.000006722182
303      -0.000074887790
304       0.000002278950
305       0.000001397769
306      -0.000000442869
307      -0.000010684567
308       0.000137121651
309      -0.000006083888
310       0.000007094223
311       0.000000041827
312       0.000017900791
313      -0.000236320897
314       0.000008118747
315       0.000014694590
316      -0.000002588992
317      -0.000614342910
318       0.001720032109
319      -0.000137184222
320      -0.000191200021
321       0.000037483414
322      -0.000163691555
323       0.001000144861
324       0.000010994345
325       0.000011125758
326      -0.000002483914
 Sym=     1a
 Ene= -1.89310989825958E+01
 Spin= Alpha
 Occup= 2.000000
  1       0.000000640853
  2      -0.000003845005
  3       0.000043584383
  4      -0.000226765391
  5       0.001672251521
  6       0.000012814678
  7       0.000001975784
  8      -0.000001899458
  9      -0.000075343265
 10      -0.000013494795
 11       0.000011268122
 12      -0.000128266333
 13      -0.000436981698
 14       0.000062858404
 15       0.000003589948
 16      -0.000000194116
 17       0.000001568947
 18       0.000008266418
 19      -0.000000417408
 20      -0.000101817839
 21      -0.000035759680
 22      -0.000029685529
 23       0.000016425766
 24       0.000092789391
 25      -0.000000487579
 26       0.000002970248
 27      -0.000047199258
 28       0.000240770528
 29      -0.001530923868
 30      -0.000003090023
 31       0.000011883361
 32      -0.000000879248
 33      -0.000002558994
 34      -0.000124727269
 35       0.000013525129
 36      -0.000226644479
 37      -0.000079047233
 38       0.000035013611
 39      -0.000007051309
 40       0.000001054913
 41      -0.000002380256
 42      -0.000016076517
 43      -0.000004621876
 44       0.000058868920
 45       0.000023762982
 46       0.000037155471
 47       0.000048315807
 48      -0.000163021929
 49      -0.000000970582
 50       0.000004866978
 51      -0.000069091016
 52       0.000496327821
 53       0.000794230492
 54      -0.000025005485
 55       0.000023834647
 56       0.000000696004
 57       0.000176291125
 58      -0.000289982446
 59       0.000007765713
 60      -0.001619188137
 61      -0.000420082818
 62       0.000254780184
 63      -0.000007727325
 64      -0.000006522120
 65      -0.000001656338
 66       0.000021288590
 67       0.000018873623
 68      -0.000000179428
 69       0.000000681581
 70       0.000031440985
 71      -0.000185343898
 72       0.000229297306
 73      -0.000011618189
 74      -0.000016526654
 75       0.000003234407
 76       0.000201524915
 77       0.000135956218
 78      -0.000040033641
 79      -0.000928150634
 80      -0.002828958844
 81       0.000412244676
 82       0.000010064119
 83       0.000007087774
 84       0.000001932184
 85      -0.000021956722
 86      -0.000017863229
 87       0.000000338969
 88      -0.000001726467
 89       0.000025476746
 90      -0.000220381487
 91       0.002734868223
 92      -0.000001724754
 93       0.000013313042
 94      -0.000001241688
 95      -0.000006524858
 96      -0.000023650445
 97       0.000003586732
 98      -0.000128391696
 99      -0.001830970544
100       0.000207450640
101       0.000002306352
102       0.000000102376
103       0.000002140565
104       0.000008659753
105      -0.000006277124
106      -0.000000518934
107       0.000002583069
108      -0.000031842720
109       0.000131298096
110      -0.000305857160
111      -0.000005846136
112      -0.000000118450
113       0.000000763465
114      -0.000001157780
115      -0.000004768803
116       0.000000595417
117      -0.000570211980
118       0.000440970581
119       0.000026974905
120      -0.000004929534
121      -0.000001474065
122      -0.000000882877
123       0.000001810728
124       0.000001161080
125      -0.000000435058
126       0.000002145215
127      -0.000016151599
128       0.000031579678
129       0.000064503891
130       0.000001062775
131      -0.000003511211
132       0.000000233951
133       0.000003051881
134       0.000013196756
135      -0.000001792325
136      -0.000075274860
137       0.000431553945
138      -0.000035319178
139      -0.000001368741
140      -0.000000650663
141      -0.000000326174
142       0.000001279297
143       0.000001525567
144      -0.000000014852
145       0.000000042013
146       0.000016866453
147      -0.000151478535
148       0.000997286232
149       0.000008563650
150      -0.000001384263
151      -0.000000964818
152      -0.000013028464
153       0.000033494170
154      -0.000001785253
155      -0.000200440488
156       0.000393989565
157      -0.000015837547
158       0.000003175594
159       0.000001454117
160       0.000000252301
161      -0.000004799444
162      -0.000001109501
163       0.000000308089
164      -0.000001522673
165       0.000023624832
166      -0.000075643363
167      -0.001904195995
168      -0.000016855014
169      -0.000008698028
170       0.000003080923
171       0.000115096506
172       0.000054464014
173      -0.000020453648
174       0.000540794028
175      -0.000340020110
176      -0.000032783841
177       0.000004990617
178      -0.000000532127
179       0.000001952838
180       0.000011503686
181       0.000001590286
182      -0.000000971461
183       0.000005163476
184      -0.000124493075
185       0.000582218891
186       0.001348425710
187       0.000027659976
188       0.000033734512
189      -0.000007073914
190      -0.000600386461
191      -0.000245160249
192       0.000102060136
193      -0.003014747215
194      -0.001841797937
195       0.000572318534
196      -0.000049920904
197      -0.000023285738
198      -0.000004717491
199       0.000073722123
200       0.000024779536
201      -0.000004390280
202       0.000022630515
203      -0.000140025071
204      -0.000567555466
205      -0.009009149718
206       0.000146625286
207      -0.000016935831
208      -0.000016970182
209      -0.000903902804
210       0.000411922944
211       0.000071758770
212       0.000939306838
213       0.001570259914
214      -0.000287322936
215      -0.000004415218
216      -0.000007843244
217      -0.000000876238
218       0.000028708189
219       0.000023446181
220      -0.000020044165
221       0.000112307373
222      -0.001086856680
223       0.004086358380
224       0.009193176390
225       0.000429345759